#     Step Nr.          Time[fs]        Kin.[a.u.]          Temp[K]            Pot.[a.u.]        Cons Qty[a.u.]        UsedTime[s]
         0            0.000000         1.073539476       298.150000000     -8981.129895903     -8980.056356427         0.000000000
         1            1.000000         1.441390700       400.311909145     -8981.512665856     -8980.071275156      1429.757761381
         2            2.000000         2.490293348       691.619617665     -8982.597620829     -8980.107327480       190.460439014
         3            3.000000         4.095391778      1137.397446682     -8984.253439855     -8980.158048077       133.593387135
         4            4.000000         6.069699674      1685.714404141     -8986.292993433     -8980.223293759       176.882867446
         5            5.000000         8.208364122      2279.677476315     -8988.499800219     -8980.291436097       177.411653403
         6            6.000000        10.305682076      2862.157545227     -8990.656795531     -8980.351113455       222.519233796
         7            7.000000        12.175874506      3381.558913748     -8992.578763895     -8980.402889390       260.730810697
         8            8.000000        13.690982608      3802.344074225     -8994.122368045     -8980.431385437       266.913454472
         9            9.000000        14.821399878      4116.290525931     -8995.261898768     -8980.440498890       283.338472037
        10           10.000000        15.613587433      4336.301736258     -8996.055137276     -8980.441549843       267.503733568
        11           11.000000        16.148439024      4484.844016784     -8996.583282632     -8980.434843607       266.638107144
        12           12.000000        16.499080684      4582.226379760     -8996.927519743     -8980.428439059       235.530299454
        13           13.000000        16.706896807      4639.942354233     -8997.132373013     -8980.425476206       263.994415932
        14           14.000000        16.787351466      4662.286718101     -8997.212821373     -8980.425469907       263.273827467
        15           15.000000        16.732466441      4647.043710489     -8997.162060330     -8980.429593890       280.102568122
        16           16.000000        16.532101711      4591.397182910     -8996.969590126     -8980.437488415       309.834369170
        17           17.000000        16.196520110      4498.197392325     -8996.642880945     -8980.446360835       339.222030235
        18           18.000000        15.743296784      4372.325416604     -8996.204774935     -8980.461478151       353.529415661
        19           19.000000        15.207943916      4223.643918449     -8995.679617185     -8980.471673270       370.293363695
        20           20.000000        14.625466920      4061.874817177     -8995.099735390     -8980.474268470       430.264228201
        21           21.000000        14.025278732      3895.186854171     -8994.503536949     -8980.478258217       429.517099425
        22           22.000000        13.444708318      3733.947260682     -8993.936671650     -8980.491963332       429.591972384
        23           23.000000        12.917467248      3587.518621088     -8993.420652005     -8980.503184756       429.361206701
        24           24.000000        12.475703116      3464.829163447     -8992.978998127     -8980.503295011       428.705372498
        25           25.000000        12.127844387      3368.219693187     -8992.643131792     -8980.515287405       431.916327730
        26           26.000000        11.856814354      3292.947561857     -8992.388084358     -8980.531270004       443.234724272
        27           27.000000        11.643248267      3233.634671903     -8992.176870542     -8980.533622275       428.190413166
        28           28.000000        11.479065011      3188.036686159     -8992.020253405     -8980.541188394       456.016071787
        29           29.000000        11.360076221      3154.990385897     -8991.908064378     -8980.547988157       487.481093794
        30           30.000000        11.282486541      3133.441701668     -8991.839214875     -8980.556728335       486.899500486
        31           31.000000        11.255050011      3125.821859482     -8991.826396663     -8980.571346652       517.703784068
        32           32.000000        11.294492191      3136.775984900     -8991.872856573     -8980.578364382       531.701514615
        33           33.000000        11.408531685      3168.447736179     -8991.983032773     -8980.574501088       528.522189391
        34           34.000000        11.582463220      3216.753073869     -8992.153262034     -8980.570798814       530.070374071
        35           35.000000        11.801101134      3277.474542962     -8992.376533248     -8980.575432114       530.406675446
        36           36.000000        12.060513486      3349.520140372     -8992.638090096     -8980.577576610       532.368511602
        37           37.000000        12.343312628      3428.060861147     -8992.932064459     -8980.588751831       546.158730685
        38           38.000000        12.619816522      3504.853226640     -8993.205237526     -8980.585421005       546.178496657
        39           39.000000        12.862918516      3572.369010806     -8993.454385446     -8980.591466930       544.799087392
        40           40.000000        13.049507359      3624.189614495     -8993.634004688     -8980.584497328       544.753933223
        41           41.000000        13.196452932      3665.000244627     -8993.784113466     -8980.587660535       588.455046025
        42           42.000000        13.361980632      3710.971617664     -8993.972708924     -8980.610728292       603.114395055
        43           43.000000        13.574143165      3769.894704102     -8994.184711094     -8980.610567929       572.616602283
        44           44.000000        13.816368424      3837.166996032     -8994.428921576     -8980.612553152       602.186209218
        45           45.000000        14.062731863      3905.588568653     -8994.683948594     -8980.621216731       574.779986246
        46           46.000000        14.294523261      3969.963104445     -8994.928805113     -8980.634281852       574.961601354
        47           47.000000        14.517203823      4031.807322565     -8995.155457992     -8980.638254169       574.039461454
        48           48.000000        14.743396285      4094.626887239     -8995.383861593     -8980.640465308       574.634159113
        49           49.000000        14.977840957      4159.738306632     -8995.625318948     -8980.647477990       559.440982949
        50           50.000000        15.223879784      4228.069725940     -8995.875737480     -8980.651857697       558.618166076
        51           51.000000        15.477919183      4298.623113799     -8996.126292926     -8980.648373742       542.748451195
        52           52.000000        15.723729171      4366.890978753     -8996.389040533     -8980.665311362       558.624732495
        53           53.000000        15.930302476      4424.261790147     -8996.606609309     -8980.676306833       544.169313511
        54           54.000000        16.064902932      4461.643858298     -8996.750578481     -8980.685675549       543.669466576
        55           55.000000        16.122581540      4477.662716971     -8996.808168918     -8980.685587378       544.366701688
        56           56.000000        16.110866733      4474.409208396     -8996.787438489     -8980.676571757       529.490074426
        57           57.000000        16.043288704      4455.641021631     -8996.721073974     -8980.677785270       529.753836236
        58           58.000000        15.943691093      4427.980159213     -8996.627030141     -8980.683339048       529.534572655
        59           59.000000        15.836261029      4398.144019696     -8996.524414667     -8980.688153639       528.774939766
        60           60.000000        15.741567890      4371.845257573     -8996.421598111     -8980.680030221       528.195227082
        61           61.000000        15.664223579      4350.364718860     -8996.336190733     -8980.671967154       512.893918857
        62           62.000000        15.606317631      4334.282722105     -8996.293278928     -8980.686961297       526.443849757
        63           63.000000        15.565780024      4323.024367987     -8996.254242691     -8980.688462667       527.747474459
        64           64.000000        15.540721433      4316.064941748     -8996.223145311     -8980.682423877       526.090935658
        65           65.000000        15.518025405      4309.761660871     -8996.200726983     -8980.682701578       527.611155089
        66           66.000000        15.477017759      4298.372764806     -8996.166369826     -8980.689352066       526.374229662
        67           67.000000        15.416460046      4281.554303278     -8996.105324645     -8980.688864599       527.171322589
        68           68.000000        15.351107479      4263.404185705     -8996.035766612     -8980.684659132       526.926715096
        69           69.000000        15.300147386      4249.251234632     -8995.988212166     -8980.688064780       525.270257693
        70           70.000000        15.274096872      4242.016325180     -8995.965455941     -8980.691359070       524.832033467
        71           71.000000        15.278494160      4243.237567175     -8995.970142641     -8980.691648481       525.632556027
        72           72.000000        15.308694375      4251.624957128     -8996.010681498     -8980.701987123       539.572723947
        73           73.000000        15.354319885      4264.296354786     -8996.065657188     -8980.711337304       526.235581256
        74           74.000000        15.402914539      4277.792361799     -8996.115235370     -8980.712320830       524.714055126
        75           75.000000        15.442620055      4288.819622321     -8996.148203464     -8980.705583409       525.479116740
        76           76.000000        15.474631692      4297.710091493     -8996.189591175     -8980.714959483       524.672011870
        77           77.000000        15.506677509      4306.610053316     -8996.227365112     -8980.720687603       539.635321934
        78           78.000000        15.552139943      4319.236160563     -8996.270317204     -8980.718177261       537.258631233
        79           79.000000        15.619035800      4337.814890464     -8996.340966020     -8980.721930220       523.302213084
        80           80.000000        15.703340656      4361.228554589     -8996.439497488     -8980.736156831       536.624347972
        81           81.000000        15.792004788      4385.852903712     -8996.536494132     -8980.744489344       521.676315260
        82           82.000000        15.873546547      4408.499183675     -8996.605954128     -8980.732407581       521.531562291
        83           83.000000        15.941363827      4427.333816719     -8996.679373964     -8980.738010137       521.306210676
        84           84.000000        15.984887301      4439.421424093     -8996.731291132     -8980.746403832       521.063991845
        85           85.000000        16.000803025      4443.841637230     -8996.743671198     -8980.742868172       520.799023876
        86           86.000000        15.993842367      4441.908480132     -8996.736147703     -8980.742305336       521.200388019
        87           87.000000        15.960445578      4432.633318305     -8996.708325127     -8980.747879549       519.517957566
        88           88.000000        15.905755848      4417.444549183     -8996.658910291     -8980.753154443       519.124933561
        89           89.000000        15.856356495      4403.725056471     -8996.605679055     -8980.749322560       518.782258487
        90           90.000000        15.840877889      4399.426242657     -8996.590591929     -8980.749714040       519.141238773
        91           91.000000        15.864421730      4405.964983209     -8996.621604225     -8980.757182495       518.800733859
        92           92.000000        15.899244400      4415.636149886     -8996.661259422     -8980.762015021       519.387949648
        93           93.000000        15.920784513      4421.618402657     -8996.681562533     -8980.760778020       519.376838260
        94           94.000000        15.924474448      4422.643194260     -8996.688689411     -8980.764214963       519.064826155
        95           95.000000        15.920571172      4421.559152242     -8996.685413714     -8980.764842542       518.361782802
        96           96.000000        15.913577386      4419.616795037     -8996.685786920     -8980.772209534       520.585785910
        97           97.000000        15.895354973      4414.555954148     -8996.668057490     -8980.772702517       518.357133637
        98           98.000000        15.865642304      4406.303968523     -8996.644580618     -8980.778938314       519.763665321
        99           99.000000        15.829247497      4396.196178465     -8996.606125379     -8980.776877882       503.690355176
       100          100.000000        15.794672151      4386.593700227     -8996.574421680     -8980.779749529       518.518881518
       101          101.000000        15.767214813      4378.968079132     -8996.553536961     -8980.786322148       501.517947221
       102          102.000000        15.743956836      4372.508730330     -8996.535320603     -8980.791363768       502.902017472
       103          103.000000        15.723717461      4366.887726378     -8996.512782698     -8980.789065237       502.521791866
       104          104.000000        15.703056150      4361.149539764     -8996.493896034     -8980.790839884       502.529177535
       105          105.000000        15.678305497      4354.275635792     -8996.463205007     -8980.784899511       487.653139949
       106          106.000000        15.656502947      4348.220497478     -8996.443661076     -8980.787158129       487.307339593
       107          107.000000        15.647602171      4345.748518837     -8996.442974689     -8980.795372519       516.833356981
       108          108.000000        15.666369456      4350.960684924     -8996.460611596     -8980.794242140       501.822819064
       109          109.000000        15.720427926      4365.974136624     -8996.524831303     -8980.804403377       515.568900916
       110          110.000000        15.798592435      4387.682465773     -8996.596793847     -8980.798201412       500.958995043
       111          111.000000        15.881879317      4410.813411870     -8996.686841735     -8980.804962418       500.586680674
       112          112.000000        15.951647189      4430.189775330     -8996.758174002     -8980.806526813       486.686278971
       113          113.000000        15.994244980      4442.020296498     -8996.800799948     -8980.806554968       499.246686124
       114          114.000000        16.003525929      4444.597858913     -8996.809811427     -8980.806285497       486.050599605
       115          115.000000        15.979144241      4437.826426025     -8996.785287505     -8980.806143265       485.709004389
       116          116.000000        15.926952496      4423.331413070     -8996.741686005     -8980.814733508       498.036224683
       117          117.000000        15.868927982      4407.216487251     -8996.681789804     -8980.812861823       498.549334294
       118          118.000000        15.822903342      4394.434240705     -8996.642806228     -8980.819902886       513.340576062
       119          119.000000        15.783757087      4383.562301449     -8996.595689385     -8980.811932298       496.335815676
       120          120.000000        15.743351496      4372.340611714     -8996.562159754     -8980.818808258       512.691571697
       121          121.000000        15.691532403      4357.949093704     -8996.512215440     -8980.820683037       497.394082607
       122          122.000000        15.621274682      4338.436686520     -8996.454067472     -8980.832792790       513.044919537
       123          123.000000        15.541426798      4316.260839956     -8996.375161110     -8980.833734312       498.653867265
       124          124.000000        15.456700919      4292.730246724     -8996.287507930     -8980.830807011       498.142701512
       125          125.000000        15.375224516      4270.102117913     -8996.204217938     -8980.828993422       511.330136881
       126          126.000000        15.312518446      4252.687001616     -8996.146920025     -8980.834401579       496.971202277
       127          127.000000        15.271735890      4241.360618724     -8996.104947706     -8980.833211816       482.820637785
       128          128.000000        15.237429060      4231.832714472     -8996.077872690     -8980.840443630       482.871784060
       129          129.000000        15.196945781      4220.589448603     -8996.036973122     -8980.840027342       469.781005560
       130          130.000000        15.149463317      4207.402326045     -8995.988895781     -8980.839432464       468.851842526
       131          131.000000        15.095478120      4192.409224586     -8995.937895822     -8980.842417702       468.728379417
       132          132.000000        15.043052795      4177.849340151     -8995.880469760     -8980.837416965       482.692388285
       133          133.000000        14.999691187      4165.806686966     -8995.846511006     -8980.846819819       496.468556149
       134          134.000000        14.967778092      4156.943585697     -8995.821907775     -8980.854129683       496.705308660
       135          135.000000        14.955959252      4153.661184642     -8995.798894574     -8980.842935322       468.508559491
       136          136.000000        14.975277969      4159.026497598     -8995.818802739     -8980.843524771       481.638202599
       137          137.000000        15.024581804      4172.719462659     -8995.882861360     -8980.858279556       495.098965311
       138          138.000000        15.088208407      4190.390235021     -8995.943847808     -8980.855639401       481.578821482
       139          139.000000        15.152289012      4208.187095570     -8996.018824553     -8980.866535541       510.079788656
       140          140.000000        15.204570067      4222.706912421     -8996.080760086     -8980.876190019       509.647344110
       141          141.000000        15.239488845      4232.404770609     -8996.118826538     -8980.879337693       509.725474882
       142          142.000000        15.264344746      4239.307904604     -8996.138694833     -8980.874350087       509.261256696
       143          143.000000        15.289430499      4246.274874772     -8996.171624302     -8980.882193802       508.465396308
       144          144.000000        15.314364773      4253.199775016     -8996.204271341     -8980.889906568       507.671834309
       145          145.000000        15.328786017      4257.204931660     -8996.221889045     -8980.893103028       494.616806100
       146          146.000000        15.324073352      4255.896101427     -8996.215073859     -8980.891000507       493.733580306
       147          147.000000        15.298573480      4248.814119677     -8996.185287603     -8980.886714123       480.306154911
       148          148.000000        15.260911013      4238.354267080     -8996.160191299     -8980.899280286       493.123398093
       149          149.000000        15.227647983      4229.116253499     -8996.120687303     -8980.893039320       479.205689725
       150          150.000000        15.214081364      4225.348448403     -8996.105626135     -8980.891544771       478.999217299
       151          151.000000        15.216220040      4225.942414814     -8996.107726367     -8980.891506326       465.679640884
       152          152.000000        15.232696687      4230.518410610     -8996.126029334     -8980.893332648       451.364148494
       153          153.000000        15.273567545      4241.869317202     -8996.173915147     -8980.900347603       464.033437281
       154          154.000000        15.339357366      4260.140871905     -8996.240643425     -8980.901286059       465.235094032
       155          155.000000        15.419660097      4282.443041281     -8996.326311396     -8980.906651299       477.699602597
       156          156.000000        15.498032469      4304.209099485     -8996.412055242     -8980.914022773       477.977409145
       157          157.000000        15.566693521      4323.278070025     -8996.481252412     -8980.914558891       452.206223672
       158          158.000000        15.620095863      4338.109297542     -8996.549356761     -8980.929260898       478.156549643
       159          159.000000        15.644474088      4344.879768396     -8996.582514391     -8980.938040303       478.877756861
       160          160.000000        15.632009756      4341.418097494     -8996.562414135     -8980.930404378       465.004705525
       161          161.000000        15.586969295      4328.909182886     -8996.519450860     -8980.932481565       465.417471978
       162          162.000000        15.519913714      4310.286093756     -8996.464658920     -8980.944745206       477.018099449
       163          163.000000        15.441133930      4288.406886626     -8996.386559139     -8980.945425209       477.174586722
       164          164.000000        15.363440337      4266.829342921     -8996.315004813     -8980.951564476       491.199617475
       165          165.000000        15.295512201      4247.963922436     -8996.237520739     -8980.942008538       462.972204896
       166          166.000000        15.239693748      4232.461677667     -8996.189820972     -8980.950127224       490.824103086
       167          167.000000        15.203911708      4222.524068974     -8996.149364420     -8980.945452711       463.580085575
       168          168.000000        15.201943211      4221.977365745     -8996.149084364     -8980.947141153       463.231944307
       169          169.000000        15.235454758      4231.284399250     -8996.185319760     -8980.949865002       450.616763076
       170          170.000000        15.287858051      4245.838164583     -8996.244217223     -8980.956359172       450.093529465
       171          171.000000        15.339844429      4260.276142088     -8996.305093575     -8980.965249145       476.022511304
       172          172.000000        15.372745946      4269.413753970     -8996.341143953     -8980.968398007       476.610810060
       173          173.000000        15.377638081      4270.772427888     -8996.345733743     -8980.968095662       476.081541275
       174          174.000000        15.352320286      4263.741013915     -8996.330854805     -8980.978534519       504.348026683
       175          175.000000        15.302753574      4249.975041147     -8996.277600903     -8980.974847329       476.582242915
       176          176.000000        15.244259555      4233.729721776     -8996.218024212     -8980.973764657       475.967544103
       177          177.000000        15.190073330      4218.680789243     -8996.159660153     -8980.969586823       476.087769737
       178          178.000000        15.157334120      4209.588254169     -8996.119119941     -8980.961785821       448.478653007
       179          179.000000        15.159822148      4210.279244681     -8996.134709964     -8980.974887815       448.576300587
       180          180.000000        15.194966092      4220.039637306     -8996.178155676     -8980.983189584       461.533915838
       181          181.000000        15.253854494      4236.394487319     -8996.238166300     -8980.984311806       474.870391100
       182          182.000000        15.315407393      4253.489337632     -8996.296571966     -8980.981164574       461.163664765
       183          183.000000        15.360138376      4265.912302095     -8996.337187449     -8980.977049073       447.980058228
       184          184.000000        15.391516604      4274.626856871     -8996.385196489     -8980.993679885       473.496027347
       185          185.000000        15.413658096      4280.776128546     -8996.403428202     -8980.989770106       408.435938165
       186          186.000000        15.428890784      4285.006644422     -8996.414363351     -8980.985472567       472.711412702
       187          187.000000        15.441653177      4288.551095024     -8996.426071584     -8980.984418407       460.985814222
       188          188.000000        15.452107927      4291.454652493     -8996.444015244     -8980.991907318       447.020866580
       189          189.000000        15.457600458      4292.980072252     -8996.464918037     -8981.007317579       473.554240975
       190          190.000000        15.445666612      4289.665730977     -8996.451567987     -8981.005901375       472.874283835
       191          191.000000        15.408059766      4279.221325737     -8996.411957291     -8981.003897525       472.993527886
       192          192.000000        15.345595098      4261.873253284     -8996.351539879     -8981.005944781       473.396464709
       193          193.000000        15.268647437      4240.502874624     -8996.273917191     -8981.005269754       473.194141673
       194          194.000000        15.207570736      4223.540276669     -8996.212327234     -8981.004756498       459.471013640
       195          195.000000        15.198149150      4220.923655746     -8996.198576399     -8981.000427249       447.157378390
       196          196.000000        15.261391122      4238.487605896     -8996.272277365     -8981.010886244       459.940296537
       197          197.000000        15.385631377      4272.992375308     -8996.397215205     -8981.011583829       434.029221123
       198          198.000000        15.524799988      4311.643139943     -8996.540277498     -8981.015477510       446.762041554
       199          199.000000        15.632599914      4341.581999748     -8996.650616695     -8981.018016780       472.931804541
       200          200.000000        15.686192520      4356.466068621     -8996.707694561     -8981.021502041       472.138365014
       201          201.000000        15.682482931      4355.435818578     -8996.697851169     -8981.015368238       446.428443666
       202          202.000000        15.624266445      4339.267577324     -8996.643806205     -8981.019539760       459.092232642
       203          203.000000        15.527318186      4312.342509322     -8996.543457729     -8981.016139543       459.677413252
       204          204.000000        15.412934265      4280.575101682     -8996.431080390     -8981.018146125       459.288355080
       205          205.000000        15.294495575      4247.681578858     -8996.306266525     -8981.011770950       446.962073244
       206          206.000000        15.191064485      4218.956059006     -8996.204309981     -8981.013245496       458.233989085
       207          207.000000        15.116720631      4198.308825509     -8996.128887839     -8981.012167208       432.265342432
       208          208.000000        15.064936747      4183.927086156     -8996.079710781     -8981.014774034       432.290538020
       209          209.000000        15.032590582      4174.943709757     -8996.045191591     -8981.012601009       444.668424775
       210          210.000000        15.029540666      4174.096668440     -8996.045743217     -8981.016202551       471.759286392
       211          211.000000        15.062168038      4183.158143208     -8996.072107141     -8981.009939103       445.169389079
       212          212.000000        15.131165828      4202.320634870     -8996.140149506     -8981.008983677       458.393717374
       213          213.000000        15.233018937      4230.607907943     -8996.238454656     -8981.005435719       419.153506874
       214          214.000000        15.349996324      4263.095588969     -8996.355008852     -8981.005012528       470.820128990
       215          215.000000        15.456356319      4292.634542074     -8996.465245601     -8981.008889282       458.558914990
       216          216.000000        15.532035938      4313.652752384     -8996.540206135     -8981.008170198       471.503315302
       217          217.000000        15.570173120      4324.244445750     -8996.573895085     -8981.003721965       457.692642791
       218          218.000000        15.573637067      4325.206474449     -8996.577994323     -8981.004357256       443.775029426
       219          219.000000        15.540976362      4316.135742075     -8996.545006708     -8981.004030346       444.464814055
       220          220.000000        15.471990912      4296.976677627     -8996.474771187     -8981.002780275       431.225031156
       221          221.000000        15.369762083      4268.585057179     -8996.386619675     -8981.016857593       457.920282729
       222          222.000000        15.248913769      4235.022318573     -8996.258661090     -8981.009747322       429.919662648
       223          223.000000        15.136055978      4203.678757408     -8996.149965042     -8981.013909064       457.329739568
       224          224.000000        15.052555123      4180.488385167     -8996.075612857     -8981.023057734       457.610417600
       225          225.000000        15.006300332      4167.642219471     -8996.035834691     -8981.029534359       471.621409561
       226          226.000000        14.987269142      4162.356760105     -8996.018870089     -8981.031600947       457.281798907
       227          227.000000        14.975672816      4159.136156969     -8996.011534705     -8981.035861889       470.905734466