#     Step Nr.          Time[fs]        Kin.[a.u.]          Temp[K]            Pot.[a.u.]        Cons Qty[a.u.]        UsedTime[s]
         0            0.000000         1.045213896       298.150000000     -8662.416836832     -8661.371622936         0.000000000
         1            1.000000         1.418764105       404.706174872     -8662.802541701     -8661.383777597      1139.011936657
         2            2.000000         2.440237337       696.084088480     -8663.855590667     -8661.415353330       152.546121907
         3            3.000000         4.015495977      1145.430739102     -8665.477055760     -8661.461559784       107.667860787
         4            4.000000         5.965275812      1701.610541177     -8667.489468541     -8661.524192729       142.470009697
         5            5.000000         8.069426017      2301.824895565     -8669.656854660     -8661.587428643       143.379558353
         6            6.000000        10.127262527      2888.828146934     -8671.773346885     -8661.646084358       190.075822494
         7            7.000000        11.968461117      3414.034864696     -8673.665907571     -8661.697446454       202.632138289
         8            8.000000        13.467928367      3841.761823017     -8675.195377076     -8661.727448709       214.664839334
         9            9.000000        14.589141340      4161.590758641     -8676.328011852     -8661.738870512       228.789131598
        10           10.000000        15.380861335      4387.430959736     -8677.117455130     -8661.736593795       227.269543439
        11           11.000000        15.931182206      4544.411428962     -8677.664490514     -8661.733308307       214.774976223
        12           12.000000        16.307796833      4651.841737071     -8678.039403446     -8661.731606613       202.052726761
        13           13.000000        16.534874771      4716.616313309     -8678.265935292     -8661.731060522       214.029168615
        14           14.000000        16.606183823      4736.957407012     -8678.337211186     -8661.731027364       213.111346146
        15           15.000000        16.526678150      4714.278205684     -8678.258011211     -8661.731333061       224.334040932
        16           16.000000        16.301011013      4649.906064215     -8678.038207377     -8661.737196364       236.400836579
        17           17.000000        15.931225480      4544.423772884     -8677.683437869     -8661.752212389       261.243385154
        18           18.000000        15.440215355      4404.361849345     -8677.206120377     -8661.765905022       258.891609558
        19           19.000000        14.866253688      4240.637781306     -8676.637988186     -8661.771734498       284.784135772
        20           20.000000        14.250748305      4065.063259520     -8676.030642630     -8661.779894326       309.512226177
        21           21.000000        13.635058886      3889.436241045     -8675.423439761     -8661.788380875       324.992694585
        22           22.000000        13.045829524      3721.357022940     -8674.844291120     -8661.798461597       326.313525615
        23           23.000000        12.499887065      3565.625507348     -8674.303621400     -8661.803734336       324.521793273
        24           24.000000        12.025509192      3430.307977400     -8673.837560237     -8661.812051045       346.067956893
        25           25.000000        11.640863137      3320.586683209     -8673.460650632     -8661.819787495       285.690955387
        26           26.000000        11.335559306      3233.497966240     -8673.155734724     -8661.820175418       324.082316497
        27           27.000000        11.103942724      3167.428730030     -8672.932705207     -8661.828762483       346.750286729
        28           28.000000        10.948857532      3123.190272805     -8672.777887202     -8661.829029670       357.028550069
        29           29.000000        10.867119509      3099.874287934     -8672.697957756     -8661.830838247       368.689093841
        30           30.000000        10.854990253      3096.414385762     -8672.698113592     -8661.843123340       392.102594173
        31           31.000000        10.899255877      3109.041270877     -8672.764665914     -8661.865410037       415.028688958
        32           32.000000        10.978544639      3131.658597966     -8672.848946592     -8661.870401952       430.264176040
        33           33.000000        11.074731219      3159.096071515     -8672.943129637     -8661.868398418       441.947003567
        34           34.000000        11.171982840      3186.837351210     -8673.037693198     -8661.865710357       462.888140571
        35           35.000000        11.292852707      3221.315797072     -8673.163048991     -8661.870196284       487.249972917
        36           36.000000        11.509479848      3283.109256099     -8673.390028923     -8661.880549075       488.216494610
        37           37.000000        11.810528420      3368.984149516     -8673.695305064     -8661.884776643       489.203119118
        38           38.000000        12.114046511      3455.563479353     -8674.016620894     -8661.902574383       453.861839490
        39           39.000000        12.385030600      3532.862400250     -8674.288180627     -8661.903150027       442.610323925
        40           40.000000        12.627611628      3602.059273372     -8674.527143211     -8661.899531584       442.292820251
        41           41.000000        12.850258653      3665.569920031     -8674.752999158     -8661.902740505       442.708519233
        42           42.000000        13.066720340      3727.316183028     -8674.968052869     -8661.901332529       429.580079352
        43           43.000000        13.285855113      3789.824950545     -8675.187062004     -8661.901206891       440.856309920
        44           44.000000        13.498773977      3850.560614151     -8675.409807407     -8661.911033429       441.497687182
        45           45.000000        13.702185208      3908.584200111     -8675.620286675     -8661.918101467       453.419873952
        46           46.000000        13.904090183      3966.178122773     -8675.832760234     -8661.928670051       466.249700855
        47           47.000000        14.103959221      4023.191289231     -8676.041395993     -8661.937436771       453.161971067
        48           48.000000        14.286208041      4075.178242170     -8676.214795903     -8661.928587862       465.495362449
        49           49.000000        14.454060613      4123.058627539     -8676.393103975     -8661.939043363       486.764421145
        50           50.000000        14.637479714      4175.379406303     -8676.582320285     -8661.944840571       487.852862545
        51           51.000000        14.846603465      4235.032503878     -8676.810677598     -8661.964074133       486.557359330
        52           52.000000        15.054544111      4294.348117428     -8677.031682161     -8661.977138050       453.606710383
        53           53.000000        15.235128134      4345.860182705     -8677.216966844     -8661.981838710       451.873563368
        54           54.000000        15.385012830      4388.615184621     -8677.377015864     -8661.992003034       440.861828344
        55           55.000000        15.516314827      4426.069422941     -8677.509772766     -8661.993457939       428.690911089
        56           56.000000        15.628299436      4458.013325916     -8677.624135778     -8661.995836342       428.527028766
        57           57.000000        15.706203815      4480.235753957     -8677.706468960     -8662.000265145       440.531990846
        58           58.000000        15.757366412      4494.830018638     -8677.754543707     -8661.997177295       416.446368112
        59           59.000000        15.799127172      4506.742384728     -8677.802203814     -8662.003076642       428.795087502
        60           60.000000        15.839061388      4518.133724526     -8677.844056620     -8662.004995232       427.616404383
        61           61.000000        15.865980060      4525.812346039     -8677.877276309     -8662.011296249       427.548092111
        62           62.000000        15.864787294      4525.472106529     -8677.873099705     -8662.008312411       415.911526166
        63           63.000000        15.834927354      4516.954480358     -8677.846824242     -8662.011896888       427.071477159
        64           64.000000        15.778029453      4500.724205032     -8677.787655757     -8662.009626304       414.333844800
        65           65.000000        15.693171757      4476.518325356     -8677.707280362     -8662.014108604       414.500297721
        66           66.000000        15.581073591      4444.542029804     -8677.585372302     -8662.004298711       390.812864747
        67           67.000000        15.449458200      4406.998395210     -8677.462841843     -8662.013383643       412.796280318
        68           68.000000        15.307942422      4366.630648937     -8677.325699164     -8662.017756742       414.289747574
        69           69.000000        15.170672176      4327.473951896     -8677.183266075     -8662.012593899       401.295811938
        70           70.000000        15.040459920      4290.330565001     -8677.064240733     -8662.023780814       424.819380888
        71           71.000000        14.916782840      4255.051354292     -8676.950515617     -8662.033732776       414.136875563
        72           72.000000        14.816413141      4226.420634747     -8676.847039807     -8662.030626666       414.001414784
        73           73.000000        14.750966254      4207.751739085     -8676.781669726     -8662.030703472       425.322975037
        74           74.000000        14.710017403      4196.070972093     -8676.740299364     -8662.030281961       425.793132554
        75           75.000000        14.681402853      4187.908596904     -8676.719309784     -8662.037906930       425.457454173
        76           76.000000        14.667398255      4183.913748589     -8676.713509043     -8662.046110788       424.875316502
        77           77.000000        14.670817373      4184.889060790     -8676.714327831     -8662.043510458       412.981263503
        78           78.000000        14.689552334      4190.233257427     -8676.741100149     -8662.051547815       424.394411110
        79           79.000000        14.720418097      4199.037797328     -8676.775061797     -8662.054643700       413.460161997
        80           80.000000        14.766900972      4212.297158964     -8676.819597610     -8662.052696639       413.324407845
        81           81.000000        14.835667255      4231.912921253     -8676.887062147     -8662.051394892       412.032355317
        82           82.000000        14.927839744      4258.205365167     -8676.986591209     -8662.058751464       410.951493264
        83           83.000000        15.029385594      4287.171584538     -8677.088659787     -8662.059274193       412.243789973
        84           84.000000        15.113684026      4311.217933033     -8677.171275819     -8662.057591793       411.094714213
        85           85.000000        15.172149020      4327.895225584     -8677.227059950     -8662.054910930       387.405764898
        86           86.000000        15.216439549      4340.529214951     -8677.274610011     -8662.058170461       399.646514928
        87           87.000000        15.246222282      4349.024817425     -8677.312826817     -8662.066604535       410.176186755
        88           88.000000        15.259763996      4352.887626752     -8677.319947481     -8662.060183485       387.465756544
        89           89.000000        15.266430138      4354.789161204     -8677.322995122     -8662.056564984       386.468261828
        90           90.000000        15.278845503      4358.330676649     -8677.346711123     -8662.067865620       411.421252042
        91           91.000000        15.302325772      4365.028484886     -8677.370566931     -8662.068241159       409.906016865
        92           92.000000        15.324160842      4371.256995825     -8677.391339794     -8662.067178952       398.196420022
        93           93.000000        15.337181674      4374.971222249     -8677.407107031     -8662.069925357       387.050763003
        94           94.000000        15.341342113      4376.157998363     -8677.414747393     -8662.073405280       398.175311842
        95           95.000000        15.335218107      4374.411109600     -8677.407015432     -8662.071797325       396.947623343
        96           96.000000        15.321661750      4370.544123238     -8677.399273652     -8662.077611902       386.795653463
        97           97.000000        15.301119734      4364.684459291     -8677.375409560     -8662.074289827       386.374071415
        98           98.000000        15.289142136      4361.267818120     -8677.369399262     -8662.080257126       407.994166248
        99           99.000000        15.300724891      4364.571829257     -8677.387061279     -8662.086336388       396.070548163
       100          100.000000        15.328343818      4372.450200458     -8677.415963204     -8662.087619387       395.230637661
       101          101.000000        15.361117773      4381.799057093     -8677.457133387     -8662.096015614       408.048902144
       102          102.000000        15.380055211      4387.201010734     -8677.480396635     -8662.100341425       395.758679256
       103          103.000000        15.379698933      4387.099381690     -8677.485616336     -8662.105917403       395.792613638
       104          104.000000        15.375759575      4385.975669338     -8677.485937031     -8662.110177456       384.568320767
       105          105.000000        15.380929792      4387.450487426     -8677.493415239     -8662.112485447       395.261305744
       106          106.000000        15.392973385      4390.885953778     -8677.519167809     -8662.126194424       407.503533923
       107          107.000000        15.399433517      4392.728723379     -8677.523960229     -8662.124526711       384.204408405
       108          108.000000        15.398796310      4392.546958454     -8677.527387708     -8662.128591398       383.011001719
       109          109.000000        15.398278118      4392.399142781     -8677.527426856     -8662.129148738       373.054079058
       110          110.000000        15.395718327      4391.668955639     -8677.533102811     -8662.137384484       372.809531414
       111          111.000000        15.387025346      4389.189260129     -8677.524899398     -8662.137874052       373.413635033
       112          112.000000        15.376391533      4386.155937083     -8677.518769471     -8662.142377938       371.675224504
       113          113.000000        15.367697839      4383.676038184     -8677.508400333     -8662.140702494       371.438755261
       114          114.000000        15.361539255      4381.919285953     -8677.502134430     -8662.140595175       371.748678546
       115          115.000000        15.358314532      4380.999425363     -8677.508012638     -8662.149698106       393.569658702
       116          116.000000        15.355301630      4380.139986933     -8677.508891795     -8662.153590165       382.228955738
       117          117.000000        15.349235804      4378.409694213     -8677.503705551     -8662.154469748       371.331336983
       118          118.000000        15.335992547      4374.632020459     -8677.496086913     -8662.160094366       381.747108088
       119          119.000000        15.303487535      4365.359880746     -8677.465063074     -8662.161575539       360.617106557
       120          120.000000        15.247653817      4349.433166650     -8677.410908781     -8662.163254964       359.970043186
       121          121.000000        15.171685799      4327.763090505     -8677.345085011     -8662.173399212       381.430998293
       122          122.000000        15.083396694      4302.578392212     -8677.250895645     -8662.167498951       370.546976628
       123          123.000000        14.996941853      4277.916922597     -8677.162372112     -8662.165430259       359.380658945
       124          124.000000        14.921667447      4256.444701268     -8677.092226097     -8662.170558650       357.800356809
       125          125.000000        14.864968223      4240.271099047     -8677.037987083     -8662.173018860       359.556551718
       126          126.000000        14.837769178      4232.512500199     -8677.008849903     -8662.171080725       370.479845152
       127          127.000000        14.841374318      4233.540876007     -8677.015598858     -8662.174224540       380.975227546
       128          128.000000        14.860968903      4239.130282666     -8677.039756612     -8662.178787709       391.406571178
       129          129.000000        14.889185813      4247.179230153     -8677.072833499     -8662.183647686       381.210276553
       130          130.000000        14.927971832      4258.243043393     -8677.116190258     -8662.188218426       380.949981268
       131          131.000000        14.983145743      4273.981545914     -8677.167909999     -8662.184764256       391.634277079
       132          132.000000        15.063853664      4297.003691911     -8677.256057493     -8662.192203828       390.144818634
       133          133.000000        15.167604273      4326.598824474     -8677.359510404     -8662.191906131       390.531174651
       134          134.000000        15.282720783      4359.436110533     -8677.485335311     -8662.202614528       390.279462592
       135          135.000000        15.387336500      4389.278017675     -8677.589565187     -8662.202228687       390.983224758
       136          136.000000        15.458466661      4409.568082091     -8677.655750560     -8662.197283900       357.379449969
       137          137.000000        15.496634939      4420.455683365     -8677.701344590     -8662.204709651       356.979095876
       138          138.000000        15.515394053      4425.806769753     -8677.718194657     -8662.202800604       358.651179194
       139          139.000000        15.516551875      4426.137041560     -8677.724698863     -8662.208146988       368.015143960
       140          140.000000        15.481909355      4416.255172161     -8677.696368707     -8662.214459352       389.903629556
       141          141.000000        15.402711379      4393.663741935     -8677.619443820     -8662.216732442       379.045989880
       142          142.000000        15.289436562      4361.351804018     -8677.514461787     -8662.225025225       401.249096842
       143          143.000000        15.147566819      4320.883088519     -8677.373589490     -8662.226022671       379.213807520
       144          144.000000        14.989312859      4275.740731951     -8677.211304962     -8662.221992103       366.573850913
       145          145.000000        14.849032039      4235.725260816     -8677.081670691     -8662.232638652       389.542193657
       146          146.000000        14.750546128      4207.631897087     -8676.980519643     -8662.229973515       377.237103296
       147          147.000000        14.699595100      4193.097982968     -8676.932122823     -8662.232527723       377.203853190
       148          148.000000        14.701101539      4193.527698418     -8676.941557051     -8662.240455513       386.671864251
       149          149.000000        14.744461994      4205.896381698     -8676.983224610     -8662.238762617       376.909260316
       150          150.000000        14.811677093      4225.069664739     -8677.066751532     -8662.255074439       398.682914240
       151          151.000000        14.883069076      4245.434414699     -8677.136261798     -8662.253192723       388.430526229
       152          152.000000        14.940459974      4261.805318610     -8677.195461354     -8662.255001380       388.395644240
       153          153.000000        14.979414930      4272.917321949     -8677.230668030     -8662.251253100       388.842144094
       154          154.000000        14.997274993      4278.011951678     -8677.249658684     -8662.252383691       386.964815205
       155          155.000000        14.986145495      4274.837233182     -8677.246057979     -8662.259912484       376.456862868
       156          156.000000        14.944417062      4262.934088425     -8677.214376746     -8662.269959684       387.325208247
       157          157.000000        14.882259910      4245.203598015     -8677.144940423     -8662.262680513       397.625374421
       158          158.000000        14.818221120      4226.936365649     -8677.075471302     -8662.257250182       374.828567882
       159          159.000000        14.762657581      4211.086720644     -8677.032632847     -8662.269975266       398.056366987
       160          160.000000        14.715067160      4197.511428487     -8676.984018704     -8662.268951544       375.527822585
       161          161.000000        14.674073412      4185.817854556     -8676.943155589     -8662.269082177       373.611369534
       162          162.000000        14.639375893      4175.920296390     -8676.905312833     -8662.265936941       385.646331517
       163          163.000000        14.617249623      4169.608720020     -8676.879852442     -8662.262602819       364.568782361
       164          164.000000        14.614016064      4168.686338806     -8676.884823405     -8662.270807341       397.417343291
       165          165.000000        14.635284850      4174.753315781     -8676.907298492     -8662.272013641       354.087233055
       166          166.000000        14.683397443      4188.477558869     -8676.954349478     -8662.270952035       365.258478814
       167          167.000000        14.752284804      4208.127858877     -8677.027019453     -8662.274734649       363.470974267
       168          168.000000        14.824288178      4228.667009719     -8677.102211282     -8662.277923104       375.569358480
       169          169.000000        14.871308906      4242.079795576     -8677.155565343     -8662.284256437       374.235177305
       170          170.000000        14.879694199      4244.471722420     -8677.165331362     -8662.285637162       386.013530146
       171          171.000000        14.858622257      4238.460895751     -8677.156496648     -8662.297874391       396.540816072
       172          172.000000        14.822687049      4228.210283423     -8677.120215586     -8662.297528537       375.096552826
       173          173.000000        14.784248174      4217.245493937     -8677.090508791     -8662.306260616       374.147437712
       174          174.000000        14.757466066      4209.605827460     -8677.058502324     -8662.301036258       365.195711909
       175          175.000000        14.743115110      4205.512179514     -8677.048775187     -8662.305660077       362.189344150
       176          176.000000        14.730340545      4201.868201624     -8677.038412026     -8662.308071481       340.750059689
       177          177.000000        14.725954827      4200.617163906     -8677.037096130     -8662.311141304       352.374992086
       178          178.000000        14.727066101      4200.934157671     -8677.048448835     -8662.321382734       352.911774283
       179          179.000000        14.717803505      4198.291977907     -8677.042286456     -8662.324482952       341.355494820
       180          180.000000        14.700230847      4193.279331313     -8677.018071560     -8662.317840713       362.399876100
       181          181.000000        14.679589741      4187.391401898     -8677.003145458     -8662.323555717       350.877522781
       182          182.000000        14.657696357      4181.146256613     -8676.989783908     -8662.332087551       351.004156862
       183          183.000000        14.636101153      4174.986168385     -8676.970070377     -8662.333969224       351.897572852
       184          184.000000        14.610469595      4167.674699267     -8676.940386674     -8662.329917079       340.563574229
       185          185.000000        14.581976332      4159.546921258     -8676.917116573     -8662.335140242       372.931323102
       186          186.000000        14.557342525      4152.520063425     -8676.903954132     -8662.346611607       373.081624758
       187          187.000000        14.533259281      4145.650254953     -8676.875971179     -8662.342711899       372.419342964
       188          188.000000        14.509789911      4138.955555732     -8676.849611861     -8662.339821950       362.480268940
       189          189.000000        14.497232924      4135.373642364     -8676.840021723     -8662.342788799       372.438881666
       190          190.000000        14.495542860      4134.891547277     -8676.837460103     -8662.341917243       351.996746285
       191          191.000000        14.497260270      4135.381442980     -8676.848443837     -8662.351183567       371.600935005
       192          192.000000        14.497102157      4135.336340706     -8676.845325822     -8662.348223665       352.120958203
       193          193.000000        14.498775567      4135.813685242     -8676.851401589     -8662.352626022       362.719634860
       194          194.000000        14.518093716      4141.324237990     -8676.879050211     -8662.360956495       361.970081476
       195          195.000000        14.566573234      4155.153147281     -8676.930898648     -8662.364325414       362.695283152
       196          196.000000        14.629230389      4173.026264748     -8676.993950158     -8662.364719769       373.206259740
       197          197.000000        14.679605328      4187.395848114     -8677.061291685     -8662.381686357       395.218641452
       198          198.000000        14.704507005      4194.499116481     -8677.087228649     -8662.382721644       383.653208834
       199          199.000000        14.705836327      4194.878309258     -8677.088747622     -8662.382911295       383.093867336
       200          200.000000        14.697074279      4192.378911928     -8677.084468711     -8662.387394432       383.994093029
       201          201.000000        14.689697235      4190.274590862     -8677.091943881     -8662.402246646       394.577135037
       202          202.000000        14.678307530      4187.025647841     -8677.084280540     -8662.405973010       395.264092933
       203          203.000000        14.652067347      4179.540566863     -8677.051135066     -8662.399067719       382.757072599
       204          204.000000        14.618639642      4170.005226397     -8677.020583190     -8662.401943548       372.032445453
       205          205.000000        14.586832195      4160.932068887     -8676.995305507     -8662.408473312       383.005560084
       206          206.000000        14.558968556      4152.983893097     -8676.969897330     -8662.410928773       382.260108524
       207          207.000000        14.536829841      4146.668766534     -8676.948539730     -8662.411709889       382.327301533
       208          208.000000        14.520259416      4141.942009648     -8676.933454384     -8662.413194968       361.517703048
       209          209.000000        14.509552513      4138.887837355     -8676.926855870     -8662.417303358       351.009183174
       210          210.000000        14.503046435      4137.031961656     -8676.921882070     -8662.418835635       371.618305762
       211          211.000000        14.504209960      4137.363860050     -8676.932047937     -8662.427837978       383.842087258
       212          212.000000        14.511889499      4139.554468695     -8676.950474453     -8662.438584954       393.322313874
       213          213.000000        14.528854790      4144.393862337     -8676.965923125     -8662.437068335       393.523343936
       214          214.000000        14.569399153      4155.959248092     -8677.012730560     -8662.443331407       372.214047858
       215          215.000000        14.627833213      4172.627716763     -8677.071695453     -8662.443862240       371.917790217
       216          216.000000        14.682618049      4188.255234517     -8677.125096677     -8662.442478628       361.257836562
       217          217.000000        14.730833798      4202.008903195     -8677.183385959     -8662.452552161       381.542905826
       218          218.000000        14.777263227      4215.253019478     -8677.232705015     -8662.455441788       382.753000990
       219          219.000000        14.817362421      4226.691419407     -8677.273429765     -8662.456067344       381.860026643
       220          220.000000        14.854342652      4237.240127267     -8677.305550057     -8662.451207404       371.602523584
       221          221.000000        14.893012133      4248.270697833     -8677.353597813     -8662.460585680       382.063444891
       222          222.000000        14.932121792      4259.426830385     -8677.395530512     -8662.463408720       371.893716330
       223          223.000000        14.968003987      4269.662320523     -8677.433290566     -8662.465286579       382.499261275
       224          224.000000        14.987916431      4275.342397174     -8677.458863126     -8662.470946696       381.877171502
       225          225.000000        14.976419385      4272.062834939     -8677.442095117     -8662.465675732       372.149882070
       226          226.000000        14.936585620      4260.700149099     -8677.391013959     -8662.454428339       360.626885750
       227          227.000000        14.895462589      4248.969696704     -8677.357208773     -8662.461746184       371.465827519