#     Step Nr.          Time[fs]        Kin.[a.u.]          Temp[K]            Pot.[a.u.]        Cons Qty[a.u.]        UsedTime[s]
      1001         1001.000000         0.061828825       394.423746780      -403.307658643      -403.245829818        21.927438266
      1002         1002.000000         0.062000775       395.520663692      -403.307926609      -403.245925834         3.101970025
      1003         1003.000000         0.060602369       386.599830531      -403.306485373      -403.245883005         3.155870963
      1004         1004.000000         0.058151908       370.967641410      -403.303916227      -403.245764319         3.095258372
      1005         1005.000000         0.056148990       358.190454991      -403.301890547      -403.245741557         3.129926811
      1006         1006.000000         0.055118572       351.617123097      -403.300912403      -403.245793831         3.145448139
      1007         1007.000000         0.054321439       346.531985212      -403.300190891      -403.245869452         3.127790906
      1008         1008.000000         0.052845070       337.113808670      -403.298681151      -403.245836081         3.085071885
      1009         1009.000000         0.051402340       327.910217406      -403.297069828      -403.245667489         3.117137890
      1010         1010.000000         0.051982354       331.610295223      -403.297677464      -403.245695109         3.211225701
      1011         1011.000000         0.054169469       345.562527723      -403.300080186      -403.245910717         3.128651127
      1012         1012.000000         0.055290056       352.711069564      -403.301234070      -403.245944014         3.235870164
      1013         1013.000000         0.054573745       348.141515034      -403.300398757      -403.245825012         3.374979055
      1014         1014.000000         0.053466691       341.079303850      -403.299201462      -403.245734771         3.180326445
      1015         1015.000000         0.053206405       339.418865075      -403.298957433      -403.245751028         3.167648097
      1016         1016.000000         0.053599054       341.923682655      -403.299437787      -403.245838733         3.101529721
      1017         1017.000000         0.053651692       342.259479387      -403.299492812      -403.245841120         3.107318833
      1018         1018.000000         0.053456360       341.013400378      -403.299186747      -403.245730387         3.108308719
      1019         1019.000000         0.053959283       344.221689865      -403.299763824      -403.245804541         3.089949929
      1020         1020.000000         0.054625675       348.472791834      -403.300491391      -403.245865717         3.116385743
      1021         1021.000000         0.054803347       349.606214512      -403.300591597      -403.245788250         3.107670416
      1022         1022.000000         0.055278927       352.640074642      -403.301031904      -403.245752977         3.343171615
      1023         1023.000000         0.056400396       359.794247248      -403.302204361      -403.245803965         3.120594789
      1024         1024.000000         0.057496558       366.786976406      -403.303327740      -403.245831182         3.108558643
      1025         1025.000000         0.058034979       370.221719250      -403.303859257      -403.245824277         3.109623982
      1026         1026.000000         0.058299770       371.910893584      -403.304034514      -403.245734744         3.108491032
      1027         1027.000000         0.059543191       379.843032760      -403.305233745      -403.245690554         3.109313022
      1028         1028.000000         0.062063085       395.918155632      -403.307938405      -403.245875320         3.133933059
      1029         1029.000000         0.063714553       406.453344524      -403.309676112      -403.245961559         3.271950312
      1030         1030.000000         0.063402263       404.461155149      -403.309212773      -403.245810510         3.125831287
      1031         1031.000000         0.062817721       400.732199483      -403.308519386      -403.245701664         3.200244094
      1032         1032.000000         0.063545335       405.373851312      -403.309293542      -403.245748208         3.140875509
      1033         1033.000000         0.064990697       414.594230362      -403.310879004      -403.245888307         3.170950480
      1034         1034.000000         0.065248330       416.237748173      -403.311182746      -403.245934416         3.140979119
      1035         1035.000000         0.063802949       407.017247848      -403.309578256      -403.245775307         3.174973890
      1036         1036.000000         0.062544151       398.987014766      -403.308232131      -403.245687980         3.286271139
      1037         1037.000000         0.062628290       399.523760400      -403.308458781      -403.245830491         3.341550768
      1038         1038.000000         0.062655993       399.700489285      -403.308552296      -403.245896302         3.079612150
      1039         1039.000000         0.061759788       393.983341905      -403.307572574      -403.245812786         3.152487330
      1040         1040.000000         0.060647557       386.888100392      -403.306410051      -403.245762494         3.141002011
      1041         1041.000000         0.060005854       382.794495605      -403.305767366      -403.245761512         3.327487173
      1042         1042.000000         0.060052637       383.092937635      -403.305829911      -403.245777274         3.149810811
      1043         1043.000000         0.060581791       386.468561924      -403.306392045      -403.245810254         3.112721953
      1044         1044.000000         0.061381270       391.568665024      -403.307154299      -403.245773029         3.109092172
      1045         1045.000000         0.062836152       400.849770379      -403.308608784      -403.245772632         3.128892734
      1046         1046.000000         0.064683603       412.635193224      -403.310569891      -403.245886288         3.129859794
      1047         1047.000000         0.065732750       419.328000079      -403.311597955      -403.245865205         3.173366724
      1048         1048.000000         0.065928048       420.573861929      -403.311688168      -403.245760120         3.151896342
      1049         1049.000000         0.066351622       423.275961264      -403.312096925      -403.245745303         3.173312842
      1050         1050.000000         0.067331213       429.525054714      -403.313157372      -403.245826159         3.118241471
      1051         1051.000000         0.067793754       432.475732432      -403.313706283      -403.245912529         3.109185823
      1052         1052.000000         0.066665501       425.278285353      -403.312552255      -403.245886754         3.084440622
      1053         1053.000000         0.064588067       412.025741317      -403.310302610      -403.245714543         3.109239254
      1054         1054.000000         0.063755481       406.714433916      -403.309411126      -403.245655645         3.109534676
      1055         1055.000000         0.064742196       413.008975114      -403.310566923      -403.245824727         3.076631598
      1056         1056.000000         0.065285685       416.476042100      -403.311195682      -403.245909997         3.159939888
      1057         1057.000000         0.064337301       410.426032436      -403.310090627      -403.245753326         3.158720120
      1058         1058.000000         0.063720954       406.494177666      -403.309349290      -403.245628337         3.148825297
      1059         1059.000000         0.064998473       414.643838374      -403.310695335      -403.245696862         3.194984827
      1060         1060.000000         0.067339967       429.580895410      -403.313196215      -403.245856248         3.094633582
      1061         1061.000000         0.068646522       437.915783216      -403.314563820      -403.245917298         3.318385952
      1062         1062.000000         0.068147985       434.735472499      -403.313963342      -403.245815357         3.268284849
      1063         1063.000000         0.067395188       429.933164119      -403.313134567      -403.245739380         3.133261300
      1064         1064.000000         0.067457949       430.333535387      -403.313271635      -403.245813686         3.131869440
      1065         1065.000000         0.067223709       428.839250808      -403.313095630      -403.245871921         3.112337717
      1066         1066.000000         0.065868102       420.191450231      -403.311683491      -403.245815389         3.112205215
      1067         1067.000000         0.064073109       408.740673030      -403.309824430      -403.245751321         3.112407120
      1068         1068.000000         0.062741213       400.244132595      -403.308494836      -403.245753623         3.112574865
      1069         1069.000000         0.061848443       394.548893404      -403.307644983      -403.245796541         3.092530671
      1070         1070.000000         0.060751924       387.553885023      -403.306564027      -403.245812104         3.104148502
      1071         1071.000000         0.059631118       380.403947129      -403.305336983      -403.245705865         3.134620701
      1072         1072.000000         0.059634712       380.426874701      -403.305372907      -403.245738195         3.132220428
      1073         1073.000000         0.060288332       384.596504245      -403.306186483      -403.245898151         3.101385275
      1074         1074.000000         0.059845223       381.769781748      -403.305676469      -403.245831246         3.104934547
      1075         1075.000000         0.058962704       376.139939157      -403.304600651      -403.245637947         3.195599328
      1076         1076.000000         0.059960145       382.502904173      -403.305613241      -403.245653096         3.095972405
      1077         1077.000000         0.062842151       400.888043368      -403.308697393      -403.245855242         3.106837316
      1078         1078.000000         0.065091523       415.237432554      -403.311048239      -403.245956715         3.077880234
      1079         1079.000000         0.065172485       415.753907642      -403.311022403      -403.245849918         3.145409059
      1080         1080.000000         0.064597770       412.087639597      -403.310252341      -403.245654571         3.118356257
      1081         1081.000000         0.065632930       418.691217940      -403.311360944      -403.245728015         3.174426567
      1082         1082.000000         0.067287101       429.243646056      -403.313233327      -403.245946226         3.107188810
      1083         1083.000000         0.067079527       427.919476304      -403.312983362      -403.245903835         3.149482357
      1084         1084.000000         0.065204439       415.957749944      -403.310946952      -403.245742514         3.128425601
      1085         1085.000000         0.063755045       406.711656071      -403.309427200      -403.245672155         3.136349688
      1086         1086.000000         0.063854659       407.347122278      -403.309593130      -403.245738471         3.094748870
      1087         1087.000000         0.064668120       412.536418422      -403.310524932      -403.245856813         3.113222400
      1088         1088.000000         0.064859335       413.756235572      -403.310676489      -403.245817154         3.133208363
      1089         1089.000000         0.064881491       413.897576773      -403.310576486      -403.245694995         3.131911339
      1090         1090.000000         0.065870024       420.203708251      -403.311647265      -403.245777241         3.122681570
      1091         1091.000000         0.066769140       425.939425418      -403.312641804      -403.245872664         3.095398718
      1092         1092.000000         0.066410177       423.649501064      -403.312215335      -403.245805157         3.092489155
      1093         1093.000000         0.065595573       418.452907622      -403.311306987      -403.245711414         3.089559145
      1094         1094.000000         0.065267968       416.363021109      -403.311034179      -403.245766212         3.127345485
      1095         1095.000000         0.064676976       412.592914275      -403.310570426      -403.245893451         3.213941607
      1096         1096.000000         0.062214697       396.885331389      -403.308104929      -403.245890233         3.061409242
      1097         1097.000000         0.058179406       371.143059202      -403.303861510      -403.245682104         3.125812813
      1098         1098.000000         0.055250226       352.456983543      -403.300846828      -403.245596602         3.197390743
      1099         1099.000000         0.054439332       347.284055968      -403.300235497      -403.245796165         3.127799668
      1100         1100.000000         0.053565121       341.707218455      -403.299416058      -403.245850937         3.057424633
      1101         1101.000000         0.051639984       329.426216734      -403.297368676      -403.245728692         3.120225778
      1102         1102.000000         0.050446030       321.809642094      -403.296056991      -403.245610961         3.119164277
      1103         1103.000000         0.051579730       329.041838512      -403.297245413      -403.245665683         3.119754992
      1104         1104.000000         0.054330447       346.589450619      -403.300132162      -403.245801715         3.081823857
      1105         1105.000000         0.056795251       362.313141638      -403.302650295      -403.245855044         3.094088858
      1106         1106.000000         0.058378127       372.410756041      -403.304129886      -403.245751759         3.115527758
      1107         1107.000000         0.060346714       384.968938089      -403.306060883      -403.245714169         3.113196421
      1108         1108.000000         0.063009131       401.953254723      -403.308877293      -403.245868162         3.056645475
      1109         1109.000000         0.064773595       413.209278141      -403.310684848      -403.245911253         3.294723917
      1110         1110.000000         0.064982855       414.544208127      -403.310821211      -403.245838356         3.130247840
      1111         1111.000000         0.064595332       412.072084432      -403.310371781      -403.245776449         3.141367433
      1112         1112.000000         0.064447302       411.127760348      -403.310256641      -403.245809339         3.125920794
      1113         1113.000000         0.064174322       409.386343352      -403.310050794      -403.245876472         3.144319406
      1114         1114.000000         0.063029237       402.081520540      -403.308852796      -403.245823559         3.124972614
      1115         1115.000000         0.061759305       393.980255534      -403.307427276      -403.245667972         3.503497781
      1116         1116.000000         0.062177228       396.646309309      -403.307858929      -403.245681701         3.227392229
      1117         1117.000000         0.063987919       408.197226151      -403.309817537      -403.245829617         3.073201464
      1118         1118.000000         0.064988158       414.578033110      -403.310874830      -403.245886673         3.148785381
      1119         1119.000000         0.064841215       413.640640580      -403.310567270      -403.245726055         3.108513136
      1120         1120.000000         0.065443983       417.485871500      -403.311097694      -403.245653712         3.128014985
      1121         1121.000000         0.067669098       431.680514402      -403.313446797      -403.245777699         3.090091324
      1122         1122.000000         0.069917222       446.021943602      -403.315840797      -403.245923575         3.078862937
      1123         1123.000000         0.070303574       448.486589667      -403.316189023      -403.245885449         3.078787779
      1124         1124.000000         0.069184903       441.350271131      -403.314897332      -403.245712429         3.132686498
      1125         1125.000000         0.068524021       437.134316342      -403.314242219      -403.245718198         3.121716923
      1126         1126.000000         0.068422547       436.486986012      -403.314284921      -403.245862374         3.093382423
      1127         1127.000000         0.067285926       429.236150997      -403.313172515      -403.245886589         3.107514873
      1128         1128.000000         0.064977508       414.510094471      -403.310738962      -403.245761454         3.118495344
      1129         1129.000000         0.063089935       402.468728709      -403.308754295      -403.245664360         3.124626759
      1130         1130.000000         0.062690220       399.918831488      -403.308408029      -403.245717809         3.159845387
      1131         1131.000000         0.063003001       401.914152636      -403.308832481      -403.245829480         3.306801862
      1132         1132.000000         0.062568883       399.144785833      -403.308393838      -403.245824955         3.137663637
      1133         1133.000000         0.061420387       391.818203618      -403.307112419      -403.245692032         3.117720938
      1134         1134.000000         0.060929344       388.685699798      -403.306649491      -403.245720147         3.123145017
      1135         1135.000000         0.060788606       387.787891860      -403.306624425      -403.245835819         3.124494506
      1136         1136.000000         0.059733404       381.056454331      -403.305518151      -403.245784748         3.184011593
      1137         1137.000000         0.058389531       372.483507883      -403.304058201      -403.245668670         3.087406761
      1138         1138.000000         0.058232502       371.481771760      -403.303918364      -403.245685863         3.309394225
      1139         1139.000000         0.058989507       376.310926015      -403.304808285      -403.245818778         3.214150757
      1140         1140.000000         0.058848815       375.413409883      -403.304742356      -403.245893541         3.099156003
      1141         1141.000000         0.056935040       363.204889970      -403.302714507      -403.245779468         3.126007547
      1142         1142.000000         0.054720492       349.077661180      -403.300353265      -403.245632772         3.136429626
      1143         1143.000000         0.053898119       343.831507634      -403.299626101      -403.245727982         3.119794915
      1144         1144.000000         0.053477135       341.145926626      -403.299329464      -403.245852330         3.075909550
      1145         1145.000000         0.052022042       331.863477192      -403.297803484      -403.245781442         3.153581459
      1146         1146.000000         0.050565631       322.572614640      -403.296201671      -403.245636039         3.238829955
      1147         1147.000000         0.050982657       325.232943227      -403.296623221      -403.245640563         3.129078070
      1148         1148.000000         0.053195272       339.347841349      -403.298974445      -403.245779174         3.071299853
      1149         1149.000000         0.055365475       353.192190797      -403.301233244      -403.245867769         3.082880351
      1150         1150.000000         0.056304487       359.182412267      -403.302096266      -403.245791780         3.119145031
      1151         1151.000000         0.056993402       363.577198674      -403.302673263      -403.245679861         3.185137229
      1152         1152.000000         0.058615341       373.924012938      -403.304404713      -403.245789372         3.158122620
      1153         1153.000000         0.060045805       383.049352855      -403.305934861      -403.245889056         3.134290980
      1154         1154.000000         0.060127861       383.572807692      -403.305931090      -403.245803229         3.134469029
      1155         1155.000000         0.059867281       381.910494021      -403.305563130      -403.245695849         3.136346028
      1156         1156.000000         0.060633619       386.799186518      -403.306336517      -403.245702898         3.329928936
      1157         1157.000000         0.062166381       396.577113607      -403.307970940      -403.245804559         3.117934607
      1158         1158.000000         0.063110392       402.599227822      -403.308969839      -403.245859447         3.118487816
      1159         1159.000000         0.062943780       401.536361701      -403.308703650      -403.245759870         3.110451760
      1160         1160.000000         0.062882663       401.146481109      -403.308552911      -403.245670248         3.131887612
      1161         1161.000000         0.063586378       405.635678950      -403.309398971      -403.245812593         3.133462434
      1162         1162.000000         0.063583670       405.618403826      -403.309444442      -403.245860772         3.070809064
      1163         1163.000000         0.062266322       397.214666216      -403.308002939      -403.245736617         3.122885795
      1164         1164.000000         0.061243689       390.690993535      -403.306916903      -403.245673214         3.109355053
      1165         1165.000000         0.061792950       394.194891075      -403.307510360      -403.245717409         3.117326879
      1166         1166.000000         0.063333653       404.023472757      -403.309155813      -403.245822160         3.118023389
      1167         1167.000000         0.064473530       411.295077268      -403.310313244      -403.245839714         3.135027472
      1168         1168.000000         0.064898191       414.004111740      -403.310621314      -403.245723123         3.107360239
      1169         1169.000000         0.065989295       420.964570652      -403.311657988      -403.245668694         3.115710424
      1170         1170.000000         0.068141398       434.693451749      -403.313994267      -403.245852869         3.129559833
      1171         1171.000000         0.069394838       442.689502775      -403.315326711      -403.245931874         3.080009902
      1172         1172.000000         0.068715666       438.356872061      -403.314555943      -403.245840277         3.151400747
      1173         1173.000000         0.067246440       428.984260730      -403.313007168      -403.245760728         3.110805249
      1174         1174.000000         0.066115304       421.768421698      -403.311872391      -403.245757087         3.124275144
      1175         1175.000000         0.065192836       415.883731063      -403.311005177      -403.245812341         3.110913092
      1176         1176.000000         0.063770717       406.811628476      -403.309560983      -403.245790266         3.141922484
      1177         1177.000000         0.062050320       395.836723852      -403.307725150      -403.245674831         3.157343670
      1178         1178.000000         0.061406173       391.727531272      -403.307060877      -403.245654704         3.128185315
      1179         1179.000000         0.062026669       395.685849198      -403.307815902      -403.245789233         3.109438224
      1180         1180.000000         0.062482646       398.594656510      -403.308277920      -403.245795275         3.053241419
      1181         1181.000000         0.062705854       400.018565764      -403.308384992      -403.245679138         3.130636016
      1182         1182.000000         0.064045219       408.562759775      -403.309732242      -403.245687022         3.458043835
      1183         1183.000000         0.066605138       424.893214961      -403.312398596      -403.245793458         3.113374350
      1184         1184.000000         0.068992091       440.120268409      -403.314839237      -403.245847146         3.093803033
      1185         1185.000000         0.069924813       446.070365501      -403.315787219      -403.245862406         3.134582818
      1186         1186.000000         0.069246327       441.742108996      -403.315003444      -403.245757118         3.129263055
      1187         1187.000000         0.068055155       434.143287370      -403.313773979      -403.245718824         3.137940066
      1188         1188.000000         0.066759870       425.880289925      -403.312555950      -403.245796081         3.351380233
      1189         1189.000000         0.064564503       411.875415258      -403.310337814      -403.245773311         3.093824550
      1190         1190.000000         0.061925825       395.042534762      -403.307571516      -403.245645691         3.115013168
      1191         1191.000000         0.060490806       385.888143108      -403.306108861      -403.245618055         3.115517960
      1192         1192.000000         0.060753852       387.566183900      -403.306450345      -403.245696494         3.138716150
      1193         1193.000000         0.061597476       392.947902176      -403.307367991      -403.245770515         3.108147207
      1194         1194.000000         0.061915617       394.977417835      -403.307663320      -403.245747703         3.126810268
      1195         1195.000000         0.062213714       396.879062663      -403.307833396      -403.245619682         3.115110436
      1196         1196.000000         0.063975049       408.115125418      -403.309630321      -403.245655271         3.185970006
      1197         1197.000000         0.066680963       425.376923554      -403.312509074      -403.245828111         3.104385607
      1198         1198.000000         0.068198897       435.060258657      -403.314035573      -403.245836675         3.105613298
      1199         1199.000000         0.068324768       435.863224736      -403.314044983      -403.245720215         3.107850988
      1200         1200.000000         0.068551825       437.311684345      -403.314230884      -403.245679059         3.085735113
      1201         1201.000000         0.069520065       443.488365559      -403.315273043      -403.245752978         3.090540979
      1202         1202.000000         0.070326821       448.634892251      -403.316166394      -403.245839573         3.139291465
      1203         1203.000000         0.069807877       445.324399763      -403.315647694      -403.245839817         3.344236758
      1204         1204.000000         0.068333512       435.919003172      -403.314041253      -403.245707741         3.110808319
      1205         1205.000000         0.067367126       429.754150205      -403.313099277      -403.245732151         3.110396599
      1206         1206.000000         0.066620778       424.992986784      -403.312441874      -403.245821095         3.099102273
      1207         1207.000000         0.065038207       414.897313845      -403.310783413      -403.245745206         3.115746227
      1208         1208.000000         0.063301347       403.817386124      -403.308953404      -403.245652057         3.105613391
      1209         1209.000000         0.062558186       399.076549634      -403.308218315      -403.245660128         3.108550156
      1210         1210.000000         0.062688714       399.909221220      -403.308416741      -403.245728027         3.118084134
      1211         1211.000000         0.062777938       400.478410550      -403.308515320      -403.245737382         3.086676831
      1212         1212.000000         0.062839788       400.872965438      -403.308466264      -403.245626476         3.123082434
      1213         1213.000000         0.064305114       410.220704690      -403.309875991      -403.245570876         3.112250675
      1214         1214.000000         0.067586146       431.151342525      -403.313344645      -403.245758499         3.104729589
      1215         1215.000000         0.070603872       450.402278649      -403.316467857      -403.245863985         3.076253288
      1216         1216.000000         0.071932433       458.877548213      -403.317698313      -403.245765880         3.114499355
      1217         1217.000000         0.072777469       464.268275945      -403.318426060      -403.245648591         3.126577537
      1218         1218.000000         0.074759167       476.910096409      -403.320417828      -403.245658661         3.108167811
      1219         1219.000000         0.077556904       494.757656216      -403.323345469      -403.245788565         3.120104118
      1220         1220.000000         0.079428024       506.694065583      -403.325294173      -403.245866149         3.051841491
      1221         1221.000000         0.079634747       508.012809135      -403.325382844      -403.245748098         3.072243893
      1222         1222.000000         0.079604309       507.818641500      -403.325236745      -403.245632436         3.129176493
      1223         1223.000000         0.080781494       515.328238003      -403.326499012      -403.245717518         3.194429049
      1224         1224.000000         0.082229510       524.565549592      -403.328057092      -403.245827581         3.122537835
      1225         1225.000000         0.082369732       525.460063477      -403.328182188      -403.245812456         3.159066403
      1226         1226.000000         0.081436516       519.506814362      -403.327138209      -403.245701693         3.132987794
      1227         1227.000000         0.080847729       515.750768753      -403.326506396      -403.245658668         3.106749355
      1228         1228.000000         0.081260862       518.386263732      -403.326994207      -403.245733345         3.144690664