      34
 i =     1001, time =     1001.000, E =      -403.3076586429
  C        -0.0137080085        0.0075566057       -0.0014565689
  F         0.0002637403        0.0165308529        0.0016162797
  F         0.0191877816       -0.0381456761        0.0004496412
  F        -0.0077772346       -0.0065007217        0.0002045278
  O        -0.0212359763        0.0235389574        0.0318381719
  C         0.0029429973       -0.0000561943        0.0000729619
  F        -0.0039087192       -0.0066950406       -0.0123237497
  F         0.0112648843        0.0320596555        0.0059343523
  C        -0.0195542348       -0.0154384349       -0.0273028996
  F         0.0060032472        0.0053289949        0.0059614992
  F         0.0039245425       -0.0027316288        0.0115224545
  C         0.0108941390       -0.0239784010       -0.0092023498
  F         0.0178201743       -0.0047849896        0.0011590730
  F         0.0017860222        0.0049021982        0.0032811237
  O        -0.0141855445        0.0106852498        0.0049654419
  C        -0.0005574756        0.0061867996        0.0172868443
  F         0.0046146378        0.0070197666       -0.0115620133
  F        -0.0060445258       -0.0080383843       -0.0138895616
  C         0.0171732767        0.0092905531        0.0005920263
  O        -0.0058115983       -0.0118012268        0.0074304967
  C         0.0079521502       -0.0377033046       -0.0222699348
  C        -0.0116669144       -0.0155902438        0.0114853156
  C         0.0154546454        0.0283727122       -0.0122221978
  O        -0.0213358409        0.0379790373        0.0203262892
  O         0.0019866459        0.0177111008       -0.0325096461
  H        -0.0021168419        0.0098242836       -0.0001989065
  H         0.0002552217        0.0005478227       -0.0059954641
  H        -0.0074615346        0.0006013921        0.0149191033
  H         0.0000830168        0.0108401032        0.0045221242
  H        -0.0025089040        0.0002069300        0.0086828681
  H        -0.0017010677       -0.0144738376        0.0008068313
  H         0.0035918068       -0.0046542280        0.0036073678
  H         0.0223946229       -0.0324696927        0.0012758799
  H         0.0030082599        0.0014245005        0.0027394689
      34
 i =     1002, time =     1002.000, E =      -403.3079266086
  C        -0.0114274451        0.0023085322       -0.0021016823
  F        -0.0005303184        0.0192110032       -0.0005339314
  F         0.0206914353       -0.0336893491        0.0029888629
  F        -0.0112310499       -0.0065235786        0.0017699864
  O        -0.0182891574        0.0180907568        0.0279430842
  C        -0.0002359905        0.0058799807        0.0052081724
  F        -0.0024996902       -0.0074119444       -0.0146088012
  F         0.0137198627        0.0310229975        0.0063161370
  C        -0.0218839244       -0.0131577458       -0.0195866453
  F         0.0083208786        0.0026075698        0.0033549752
  F         0.0049729657       -0.0042865191        0.0101980086
  C         0.0209322810       -0.0265383916       -0.0153281000
  F         0.0158866623       -0.0060460935        0.0006045227
  F         0.0009218701        0.0042755551        0.0053340435
  O        -0.0222471681        0.0157003386        0.0071420635
  C         0.0017632384        0.0009286579        0.0174456923
  F         0.0034697045        0.0150125879       -0.0155773420
  F        -0.0083841272       -0.0069485902       -0.0143238965
  C         0.0140253212       -0.0012163877       -0.0012524870
  O         0.0015712526       -0.0069600757        0.0033432566
  C         0.0110082726       -0.0339665603       -0.0262643308
  C        -0.0169044446       -0.0117510683        0.0156241015
  C         0.0081955385        0.0123049067       -0.0057405453
  O        -0.0123512166        0.0261473413        0.0222984065
  O         0.0012501610        0.0209782284       -0.0214206867
  H        -0.0007138796        0.0094390912       -0.0018114002
  H        -0.0003594986        0.0064037907       -0.0004469476
  H        -0.0097622549       -0.0044286252        0.0202522511
  H        -0.0021915369        0.0103808075        0.0035866589
  H        -0.0018750468        0.0003231054        0.0072409507
  H        -0.0022517337       -0.0020919340       -0.0088438973
  H         0.0139294932       -0.0039047939        0.0024102093
  H         0.0133315377       -0.0174988431        0.0024731933
  H         0.0035793225       -0.0033238728       -0.0083703174
      34
 i =     1003, time =     1003.000, E =      -403.3064853731
  C        -0.0090775373       -0.0031469205       -0.0025532739
  F        -0.0015538865        0.0217690020       -0.0025169440
  F         0.0226199282       -0.0284242635        0.0050368715
  F        -0.0136493541       -0.0076647552        0.0038618829
  O        -0.0151411137        0.0114330188        0.0229147688
  C        -0.0032967755        0.0124047763        0.0105403768
  F        -0.0015551939       -0.0078799582       -0.0162201850
  F         0.0158431803        0.0294976029        0.0068806153
  C        -0.0232116715       -0.0103913975       -0.0110793336
  F         0.0093125619       -0.0002471154        0.0001302012
  F         0.0056681721       -0.0060780342        0.0075577164
  C         0.0299541299       -0.0283521690       -0.0207280551
  F         0.0126596842       -0.0084344918        0.0006001517
  F         0.0000319112        0.0031559762        0.0071124880
  O        -0.0288813549        0.0202973446        0.0091506731
  C         0.0039166059       -0.0037670116        0.0166525941
  F         0.0021476292        0.0222287625       -0.0190564556
  F        -0.0107456220       -0.0064483395       -0.0144032389
  C         0.0104390604       -0.0098184244       -0.0039658059
  O         0.0082123000       -0.0019755400       -0.0008027328
  C         0.0142964278       -0.0292847499       -0.0242533194
  C        -0.0220271439       -0.0066996049        0.0196296626
  C         0.0033999938       -0.0038494831       -0.0003784536
  O         0.0002998277        0.0055412354        0.0226957443
  O         0.0002778926        0.0210316065       -0.0137389479
  H         0.0008138455        0.0078735667       -0.0018011591
  H        -0.0009512245        0.0112710897        0.0048193373
  H        -0.0112402295       -0.0055632866        0.0212037523
  H        -0.0052731808        0.0058966248        0.0007912988
  H        -0.0003671460        0.0000836652        0.0047780667
  H        -0.0017386619        0.0089210623       -0.0161289034
  H         0.0199814152       -0.0020527071        0.0007745645
  H         0.0000928020        0.0060322613        0.0042289082
  H         0.0042787519       -0.0056310849       -0.0147754115
      34
 i =     1004, time =     1004.000, E =      -403.3039162268
  C        -0.0067150800       -0.0084586609       -0.0028023360
  F        -0.0027351544        0.0240722143       -0.0042543306
  F         0.0226947870       -0.0225544947        0.0068621820
  F        -0.0146479477       -0.0091958880        0.0054443072
  O        -0.0126091208        0.0043567624        0.0169739327
  C        -0.0061335382        0.0192501184        0.0158350184
  F        -0.0010203768       -0.0080471526       -0.0177066980
  F         0.0176966417        0.0275814246        0.0075871749
  C        -0.0234624481       -0.0073306388       -0.0022070771
  F         0.0091164082       -0.0029699172       -0.0035860600
  F         0.0026318275       -0.0077887317        0.0055288419
  C         0.0370497948       -0.0291236554       -0.0249640244
  F         0.0089058044       -0.0112806430        0.0012902180
  F        -0.0007944834        0.0019228432        0.0079245330
  O        -0.0335572244        0.0238896640        0.0105180498
  C         0.0058139530       -0.0077628876        0.0149493044
  F         0.0009878022        0.0271865808       -0.0194003140
  F        -0.0135772086       -0.0060904194       -0.0145764010
  C         0.0066426122       -0.0143992323       -0.0053762554
  O         0.0140687157        0.0027160933       -0.0043762824
  C         0.0172616351       -0.0264636119       -0.0167411165
  C        -0.0263229252       -0.0010819327        0.0226756629
  C         0.0017237989       -0.0172415722        0.0019002306
  O         0.0084705369       -0.0104835642        0.0224788206
  O         0.0004908696        0.0157911644       -0.0131282479
  H         0.0024301947        0.0052519062       -0.0003266808
  H        -0.0014775773        0.0132059676        0.0076174398
  H        -0.0119647105       -0.0023294206        0.0169878592
  H        -0.0084717548       -0.0003882605       -0.0027390835
  H         0.0013213594       -0.0001772360        0.0019699268
  H         0.0000764749        0.0161986562       -0.0194868864
  H         0.0209530507        0.0006913659       -0.0011695138
  H        -0.0097462209        0.0241162650        0.0059543916
  H         0.0037288716       -0.0031039373       -0.0128259786
      34
 i =     1005, time =     1005.000, E =      -403.3018905474
  C        -0.0044458744       -0.0133031517       -0.0028742315
  F        -0.0039817671        0.0260090585       -0.0057161661
  F         0.0218081901       -0.0164426670        0.0084272431
  F        -0.0145794803       -0.0117860282        0.0056746799
  O        -0.0113931609       -0.0026537946        0.0103941861
  C        -0.0086151879        0.0260472542        0.0207840199
  F        -0.0008434691       -0.0079174909       -0.0185914955
  F         0.0192797892        0.0254096029        0.0084151951
  C        -0.0226943273       -0.0041638132        0.0066090132
  F         0.0082373591       -0.0054266061       -0.0072168024
  F         0.0000083717       -0.0073256037        0.0040600979
  C         0.0415139338       -0.0286403527       -0.0276754523
  F         0.0057514280       -0.0127815987        0.0023384503
  F        -0.0015647938        0.0005383761        0.0090445928
  O        -0.0360056003        0.0261931585        0.0107970021
  C         0.0073570554       -0.0110065895        0.0125051606
  F         0.0002336645        0.0298082369       -0.0183060666
  F        -0.0154323125       -0.0057073541       -0.0146983689
  C         0.0028891420       -0.0141618472       -0.0036657242
  O         0.0193412202        0.0066744511       -0.0069117155
  C         0.0190129017       -0.0261024478       -0.0064222410
  C        -0.0291859169        0.0044339752        0.0241477668
  C         0.0035315134       -0.0262691359        0.0006139027
  O         0.0090498310       -0.0170752141        0.0222826101
  O         0.0026921916        0.0061642512       -0.0177639892
  H         0.0040137498        0.0019513727        0.0018694113
  H        -0.0019106528        0.0112501206        0.0067052652
  H        -0.0119381517        0.0033415815        0.0090884712
  H        -0.0109926636       -0.0060456755       -0.0058674749
  H         0.0025050706       -0.0001507502       -0.0005244522
  H         0.0029830089        0.0187616617       -0.0186983515
  H         0.0167539178        0.0039932595       -0.0032628553
  H        -0.0136440794        0.0314511959        0.0071072542
  H         0.0009879698        0.0032728481       -0.0045172246
      34
 i =     1006, time =     1006.000, E =      -403.3009124033
  C        -0.0023074977       -0.0174452616       -0.0028028980
  F        -0.0052103548        0.0274918422       -0.0067669566
  F         0.0214345242       -0.0107275930        0.0098037727
  F        -0.0146844584       -0.0148011987        0.0043232468
  O        -0.0095268396       -0.0095813159        0.0035778494
  C        -0.0106808347        0.0323653317        0.0250427347
  F        -0.0008581388       -0.0075362414       -0.0194001272
  F         0.0205274007        0.0231113104        0.0093444461
  C        -0.0209925568       -0.0010058603        0.0150065005
  F         0.0070411677       -0.0076117246       -0.0106060422
  F        -0.0017082528       -0.0023298027        0.0025035448
  C         0.0429352218       -0.0267967420       -0.0286116994
  F         0.0039126127       -0.0109889646        0.0032140963
  F        -0.0022334214       -0.0009054548        0.0093509763
  O        -0.0361723148        0.0271008790        0.0097299389
  C         0.0084721344       -0.0134785846        0.0094659223
  F         0.0000053618        0.0306569696       -0.0174320452
  F        -0.0163487048       -0.0052318249       -0.0146223815
  C        -0.0005096855       -0.0102431980        0.0013510738
  O         0.0241618775        0.0096824094       -0.0082418026
  C         0.0187189747       -0.0271257312        0.0034006260
  C        -0.0301837833        0.0093277943        0.0237800404
  C         0.0085816410       -0.0299923872       -0.0042761327
  O         0.0023684021       -0.0136556876        0.0227484069
  O         0.0061605116       -0.0044520411       -0.0225789341
  H         0.0054074511       -0.0015333376        0.0038432413
  H        -0.0022218758        0.0061613408        0.0026932742
  H        -0.0110842813        0.0087097709        0.0001082595
  H        -0.0122848549       -0.0094799442       -0.0078886043
  H         0.0027062744        0.0003558596       -0.0022324766
  H         0.0066251514        0.0162115251       -0.0140216297
  H         0.0080288107        0.0074510439       -0.0053010277
  H        -0.0115002816        0.0274065195        0.0074282838
  H        -0.0030637513        0.0101704100        0.0048154178
      34
 i =     1007, time =     1007.000, E =      -403.3001908912
  C        -0.0003454696       -0.0207051409       -0.0026231186
  F        -0.0063415477        0.0284577549       -0.0073346160
  F         0.0206198006       -0.0056288135        0.0110720512
  F        -0.0159655046       -0.0169163648        0.0022978333
  O        -0.0064550644       -0.0161370142       -0.0028098180
  C        -0.0122902903        0.0377472247        0.0282066269
  F        -0.0009318563       -0.0068865690       -0.0200476127
  F         0.0213806703        0.0207570692        0.0103036276
  C        -0.0184674196        0.0021597686        0.0226750590
  F         0.0057584819       -0.0095506143       -0.0136031860
  F        -0.0016565491        0.0016828047        0.0001770485
  C         0.0412210025       -0.0236294276       -0.0277356646
  F         0.0034364598       -0.0052027353        0.0032208759
  F        -0.0028422677       -0.0024585738        0.0095553234
  O        -0.0341809811        0.0266451017        0.0072869142
  C         0.0090894711       -0.0151816926        0.0059595139
  F         0.0004098630        0.0303116361       -0.0159042192
  F        -0.0153204942       -0.0044499082       -0.0145081912
  C        -0.0032451300       -0.0050186323        0.0083829606
  O         0.0284753338        0.0117438597       -0.0085011412
  C         0.0159506592       -0.0283320674        0.0102635524
  C        -0.0291559578        0.0132074324        0.0216221178
  C         0.0153147712       -0.0279099048       -0.0124344070
  O        -0.0085416982        0.0006970376        0.0242606330
  O         0.0094317722       -0.0125206709       -0.0237062163
  H         0.0064543860       -0.0046810087        0.0047991369
  H        -0.0023809504       -0.0001196630       -0.0024588624
  H        -0.0093990793        0.0118210545       -0.0077015540
  H        -0.0120978902       -0.0099483643       -0.0085238231
  H         0.0017440079        0.0013781353       -0.0029364644
  H         0.0105476895        0.0086427094       -0.0059994638
  H        -0.0033469796        0.0105678323       -0.0070207326
  H        -0.0035460176        0.0122096734        0.0068145636
  H        -0.0070100251        0.0147667427        0.0109461599
      34
 i =     1008, time =     1008.000, E =      -403.2986811510
  C         0.0013832920       -0.0229757099       -0.0023630659
  F        -0.0073040534        0.0288554012       -0.0074181048
  F         0.0196880689       -0.0012065064        0.0122885696
  F        -0.0185861911       -0.0174274180        0.0008452014
  O        -0.0029857889       -0.0213064046       -0.0081357971
  C        -0.0134321811        0.0417536428        0.0298973444
  F        -0.0009866892       -0.0060225595       -0.0204009505
  F         0.0217429738        0.0183445353        0.0111897265
  C        -0.0152742908        0.0053107998        0.0293403893
  F         0.0044966266       -0.0113672070       -0.0161252616
  F        -0.0015076098        0.0036176192       -0.0027403512
  C         0.0366946677       -0.0192879986       -0.0251952799
  F         0.0034435751       -0.0020706353        0.0021908120
  F        -0.0033147687       -0.0040725069        0.0094222344
  O        -0.0303485143        0.0249837526        0.0036440846
  C         0.0091618920       -0.0161551688        0.0021027695
  F         0.0011805763        0.0292393113       -0.0144707829
  F        -0.0127457940       -0.0033831413       -0.0138474643
  C        -0.0050802486       -0.0008036138        0.0157608885
  O         0.0321159554        0.0128561149       -0.0079565368
  C         0.0108160936       -0.0290323754        0.0129718843
  C        -0.0262070816        0.0158818390        0.0179286268
  C         0.0204758604       -0.0206955276       -0.0226224563
  O        -0.0211061115        0.0234718863        0.0262515217
  O         0.0111318755       -0.0168813027       -0.0196778313
  H         0.0070282823       -0.0070505574        0.0042750557
  H        -0.0023761400       -0.0056351824       -0.0067224683
  H        -0.0070252411        0.0119366762       -0.0128492737
  H        -0.0104723519       -0.0073635498       -0.0078201558
  H        -0.0002434352        0.0027998369       -0.0026662176
  H         0.0141004979       -0.0026176730        0.0040678174
  H        -0.0138098177        0.0127258920       -0.0081242266
  H         0.0085875951       -0.0109158657        0.0054503054
  H        -0.0092665963        0.0157761619        0.0121032236
      34
 i =     1009, time =     1009.000, E =      -403.2970698285
  C         0.0028321142       -0.0241898690       -0.0020485107
  F        -0.0080339667        0.0286570355       -0.0070426498
  F         0.0182144568        0.0023063186        0.0134582081
  F        -0.0216730027       -0.0169204000        0.0004675346
  O         0.0002677842       -0.0240831552       -0.0120143985
  C        -0.0141120948        0.0440209415        0.0298201661
  F        -0.0009271376       -0.0050018652       -0.0206144147
  F         0.0214987914        0.0158113103        0.0118882796
  C        -0.0115774675        0.0084625679        0.0347612878
  F         0.0032827183       -0.0132233570       -0.0180544594
  F        -0.0031684385        0.0037794237       -0.0052089866
  C         0.0299373845       -0.0140617652       -0.0212968401
  F         0.0028099451       -0.0014457629        0.0003053039
  F        -0.0036404369       -0.0056926150        0.0090515925
  O        -0.0251258315        0.0223817973       -0.0008946373
  C         0.0086742193       -0.0164320220       -0.0019964187
  F         0.0022184798        0.0278731422       -0.0126066043
  F        -0.0093546630       -0.0020350546       -0.0122336279
  C        -0.0058864047        0.0009162450        0.0221629358
  O         0.0349221434        0.0131639615       -0.0068937058
  C         0.0039205921       -0.0287351827        0.0113731988
  C        -0.0217578200        0.0173910331        0.0130657356
  C         0.0202588403       -0.0114302886       -0.0320280729
  O        -0.0297558691        0.0429577349        0.0276199914
  O         0.0103097666       -0.0169889182       -0.0105200197
  H         0.0070644105       -0.0084207806        0.0021955371
  H        -0.0022270047       -0.0091003465       -0.0087880731
  H        -0.0042153735        0.0091587943       -0.0147244892
  H        -0.0077133204       -0.0022602159       -0.0060945456
  H        -0.0028403636        0.0043761670       -0.0016977296
  H         0.0163952563       -0.0138634059        0.0134370218
  H        -0.0188034928        0.0132641906       -0.0083580676
  H         0.0189911234       -0.0304754227        0.0040735755
  H        -0.0089374908        0.0129325491        0.0081030416
      34
 i =     1010, time =     1010.000, E =      -403.2976774637
  C         0.0039470204       -0.0243124450       -0.0016950071
  F        -0.0084652499        0.0278483975       -0.0062739691
  F         0.0163388365        0.0050508031        0.0145757746
  F        -0.0236828827       -0.0166056571        0.0008592464
  O         0.0032104601       -0.0244469130       -0.0143868017
  C        -0.0143379830        0.0443350841        0.0278473478
  F        -0.0007570206       -0.0038702120       -0.0206746311
  F         0.0205514599        0.0130763142        0.0123002084
  C        -0.0075652003        0.0116347000        0.0387377521
  F         0.0021502598       -0.0150625432       -0.0193554006
  F        -0.0075390251        0.0016695679       -0.0059694100
  C         0.0216904178       -0.0083773796       -0.0164534335
  F         0.0005973585       -0.0027197174       -0.0018583850
  F        -0.0038313544       -0.0072248848        0.0086026466
  O        -0.0190357824        0.0192010583       -0.0059629172
  C         0.0076397260       -0.0160608272       -0.0061727304
  F         0.0031311930        0.0262182901       -0.0111569892
  F        -0.0060143258       -0.0005560586       -0.0096091723
  C        -0.0056745249       -0.0004291803        0.0266405656
  O         0.0367491494        0.0130018858       -0.0055849570
  C        -0.0037421252       -0.0266150903        0.0060795367
  C        -0.0165310306        0.0180014758        0.0074868245
  C         0.0132576809       -0.0053724332       -0.0368504762
  O        -0.0268396258        0.0434912241        0.0272206919
  O         0.0065882850       -0.0133348323        0.0026499370
  H         0.0065916232       -0.0088140137       -0.0011102485
  H        -0.0019735901       -0.0099313178       -0.0081181869
  H        -0.0012727736        0.0039439943       -0.0131300688
  H        -0.0043832381        0.0039879871       -0.0039428055
  H        -0.0054014655        0.0057574911       -0.0005402694
  H         0.0165108954       -0.0194370611        0.0185768233
  H        -0.0158968151        0.0117484259       -0.0076265246
  H         0.0194875603       -0.0309666809        0.0034790620
  H        -0.0055911165        0.0068064539       -0.0000800327
      34
 i =     1011, time =     1011.000, E =      -403.3000801864
  C         0.0046915591       -0.0233486248       -0.0013242155
  F        -0.0085502128        0.0264321891       -0.0052083429
  F         0.0144244940        0.0072028383        0.0155451673
  F        -0.0242029293       -0.0178070900        0.0015291244
  O         0.0061859048       -0.0232449263       -0.0153889233
  C        -0.0141070662        0.0426612549        0.0240459528
  F        -0.0005048843       -0.0026692324       -0.0205944112
  F         0.0188872980        0.0101470285        0.0124133051
  C        -0.0034341565        0.0148233489        0.0411506136
  F         0.0011299787       -0.0163700592       -0.0200452796
  F        -0.0128140928       -0.0018381370       -0.0048435435
  C         0.0126873573       -0.0026341447       -0.0110643108
  F        -0.0033979433       -0.0056076940       -0.0035614855
  F        -0.0038625397       -0.0086471389        0.0080392269
  O        -0.0125939306        0.0156711975       -0.0111802186
  C         0.0061238169       -0.0150718198       -0.0102660041
  F         0.0036209662        0.0242129376       -0.0098513441
  F        -0.0030772735        0.0008572008       -0.0056219056
  C        -0.0045920849       -0.0046497864        0.0284291807
  O         0.0375359300        0.0123066912       -0.0040323903
  C        -0.0110163857       -0.0214514949       -0.0016316162
  C        -0.0114540812        0.0180178587        0.0017220159
  C         0.0020953329       -0.0063820122       -0.0349281878
  O        -0.0128684535        0.0244698188        0.0252081900
  O         0.0008718508       -0.0077342752        0.0169767570
  H         0.0057413089       -0.0084897924       -0.0049229346
  H        -0.0016582181       -0.0080564449       -0.0047546098
  H         0.0015040409       -0.0027897674       -0.0084385061
  H        -0.0011842726        0.0091753184       -0.0021145345
  H        -0.0071859021        0.0065669452        0.0001742276
  H         0.0140023738       -0.0155655969        0.0175744741
  H        -0.0068484541        0.0082958804       -0.0060654739
  H         0.0095445226       -0.0119323724        0.0033926190
  H        -0.0001378916       -0.0006906004       -0.0096716589
      34
 i =     1012, time =     1012.000, E =      -403.3012340703
  C         0.0050205616       -0.0213393159       -0.0009194799
  F        -0.0083002015        0.0244440565       -0.0039598187
  F         0.0126228159        0.0088609118        0.0162423340
  F        -0.0224712670       -0.0209673306        0.0019236365
  O         0.0094358948       -0.0216093506       -0.0152131487
  C        -0.0134389103        0.0390955028        0.0186282523
  F        -0.0002117870       -0.0014398168       -0.0203877360
  F         0.0166112313        0.0071482506        0.0123200607
  C         0.0006163841        0.0179257646        0.0419165146
  F         0.0002817507       -0.0176789657       -0.0200265228
  F        -0.0160603170       -0.0051391956       -0.0029112773
  C         0.0035907437        0.0028267853       -0.0055180451
  F        -0.0083192398       -0.0098268329       -0.0043739034
  F        -0.0037502373       -0.0099255959        0.0075012412
  O        -0.0062755524        0.0120468682       -0.0162051036
  C         0.0042526866       -0.0134877478       -0.0140653107
  F         0.0035614576        0.0217535665       -0.0086084143
  F        -0.0005981500        0.0020629762       -0.0010471565
  C        -0.0028927015       -0.0108509678        0.0270335265
  O         0.0371765532        0.0113675478       -0.0025139150
  C        -0.0170038179       -0.0124327500       -0.0098596255
  C        -0.0073938563        0.0176251519       -0.0036979439
  C        -0.0089367235       -0.0131555958       -0.0276619232
  O         0.0034453603        0.0008750871        0.0227138654
  O        -0.0039678535       -0.0035887168        0.0276044684
  H         0.0047164936       -0.0078964940       -0.0082415889
  H        -0.0013116542       -0.0038977316        0.0006976995
  H         0.0039118575       -0.0096328291       -0.0019562767
  H         0.0013157641        0.0109866413       -0.0011362886
  H        -0.0076043351        0.0065261247       -0.0000655758
  H         0.0093912297       -0.0041390173        0.0118887362
  H         0.0040029619        0.0036033384       -0.0040038862
  H        -0.0029723948        0.0113049420        0.0029314178
  H         0.0043514011       -0.0061791457       -0.0158768789
      34
 i =     1013, time =     1013.000, E =      -403.3003987567
  C         0.0049840827       -0.0184222526       -0.0005084440
  F        -0.0078338495        0.0219928028       -0.0026978529
  F         0.0109519518        0.0100922125        0.0165656861
  F        -0.0200714210       -0.0245720878        0.0018555279
  O         0.0126698472       -0.0200977773       -0.0141110470
  C        -0.0122996284        0.0339055026        0.0120152189
  F         0.0000634187       -0.0002065710       -0.0200754957
  F         0.0139896148        0.0044983067        0.0121067422
  C         0.0044265991        0.0208252916        0.0410809339
  F        -0.0003240578       -0.0183574202       -0.0193489852
  F        -0.0158503026       -0.0070126079       -0.0014090888
  C        -0.0050773033        0.0077382804       -0.0001205548
  F        -0.0123990682       -0.0139696905       -0.0041812353
  F        -0.0035126382       -0.0110186359        0.0069466512
  O        -0.0004608915        0.0086138815       -0.0206138238
  C         0.0021614475       -0.0113474018       -0.0173545525
  F         0.0028928592        0.0187919207       -0.0073671275
  F         0.0015485743        0.0030581836        0.0034443199
  C        -0.0008581625       -0.0174000695        0.0226691973
  O         0.0356442056        0.0101599733       -0.0010352619
  C        -0.0214553383       -0.0003492723       -0.0163389329
  C        -0.0047774926        0.0168813489       -0.0083486058
  C        -0.0169494550       -0.0207265229       -0.0183117750
  O         0.0151549439       -0.0156291984        0.0201816511
  O        -0.0044285159       -0.0037484862        0.0303799114
  H         0.0037265264       -0.0075238474       -0.0100242154
  H        -0.0009455059        0.0014410708        0.0068837822
  H         0.0059658997       -0.0150321343        0.0040191271
  H         0.0029572507        0.0083791493       -0.0009252138
  H        -0.0064878745        0.0055769848       -0.0013857737
  H         0.0037901224        0.0091106332        0.0048442156
  H         0.0127036522       -0.0014034333       -0.0018161813
  H        -0.0115749695        0.0268168729        0.0017658083
  H         0.0043224035       -0.0068400320       -0.0146856575
      34
 i =     1014, time =     1014.000, E =      -403.2992014623
  C         0.0046180682       -0.0147188687       -0.0000832390
  F        -0.0073418567        0.0192677440       -0.0015967960
  F         0.0094037631        0.0109295765        0.0164230970
  F        -0.0183368894       -0.0279083998        0.0015839126