      34
 i =     1001, time =     1001.000, E =      -403.3076586429
  C         5.1912121440       -0.9777508318       -2.8101359892
  F         5.0040860648       -0.5633947408       -4.0794222448
  F         4.9840772248       -2.2794347583       -2.8357594174
  F         6.4265977001       -0.5975849788       -2.4148239132
  O         4.1478162088       -0.5807076427       -1.9761807195
  C         4.3180298529        0.3651357908       -0.9486226645
  F         5.0375292886       -0.1081604718        0.1265586885
  F         5.0148277826        1.3748267818       -1.4903262589
  C         2.9782958988        1.0304348658       -0.3428595593
  F         3.3387859199        2.0015351667        0.5069407987
  F         2.3093234575        1.6014008959       -1.4202284505
  C         1.9844509522        0.0388169451        0.3869973610
  F         2.7104811504       -0.6463753822        1.3081794338
  F         1.5446890814       -0.8650905869       -0.5724986926
  O         0.8709171817        0.5853732871        0.9247574065
  C         0.3780959991        0.4024066048        2.2500654703
  F         0.4374581072       -0.8824276139        2.7173546886
  F         1.1937654395        1.1403755327        3.1381032598
  C        -1.0811743523        1.0147854530        2.2038414419
  O        -2.1119875373        0.1064576418        2.3811157906
  C        -3.2329933652        0.5600017444        3.2157886007
  C        -4.5301659882        0.5929078235        2.3912796386
  C        -5.2027912724       -0.7526825464        1.8497813195
  O        -4.7632684627       -1.0465817965        0.4714513882
  O        -4.3961407365        1.5138504142        1.3746679785
  H        -1.1346533721        1.4340871686        1.1943789648
  H        -1.0856148286        1.7980677141        2.9838098139
  H        -3.2675094329       -0.2382446420        3.9510182339
  H        -3.0148120930        1.5183769725        3.6602073251
  H        -5.2989768666        0.9903952719        3.0657360807
  H        -4.9802940170       -1.5192923475        2.5778016310
  H        -6.2811991421       -0.5397458446        1.7674626546
  H        -4.3076341134       -1.8613232329        0.4619095464
  H        -4.3493624382        1.0090482119        0.5359598466
      34
 i =     1002, time =     1002.000, E =      -403.3079266086
  C         5.1852599014       -0.9723494517       -2.8080135837
  F         5.0035579237       -0.5675594008       -4.0776446435
  F         4.9770405075       -2.2795869742       -2.8386451310
  F         6.4234805417       -0.5901661319       -2.4127695386
  O         4.1415592818       -0.5729695769       -1.9750315474
  C         4.3208499849        0.3596815126       -0.9516489868
  F         5.0364144765       -0.1078081141        0.1313886932
  F         5.0109204294        1.3753662670       -1.4916642489
  C         2.9808911081        1.0293704502       -0.3520648623
  F         3.3338661736        2.0019584497        0.5108068470
  F         2.3169748417        1.6074858190       -1.4245611509
  C         1.9778527547        0.0429345978        0.3898871927
  F         2.7141372775       -0.6386388501        1.3073954766
  F         1.5451192376       -0.8638889193       -0.5758749242
  O         0.8767019220        0.5824939214        0.9271547358
  C         0.3748178591        0.4041234513        2.2501592927
  F         0.4371971117       -0.8907838514        2.7149035689
  F         1.1901212492        1.1366129802        3.1421156838
  C        -1.0827958198        1.0175614351        2.2022542603
  O        -2.1176245500        0.1011654145        2.3867197081
  C        -3.2287815128        0.5673039915        3.2238988759
  C        -4.5183780067        0.5892268407        2.3961546198
  C        -5.1917507503       -0.7474723831        1.8569655078
  O        -4.7550693399       -1.0429785701        0.4687223456
  O        -4.3972614462        1.5154424463        1.3798804647
  H        -1.1540206504        1.4442392075        1.1998249250
  H        -1.0815641169        1.7839454400        2.9807904422
  H        -3.2438611830       -0.2188220406        3.9574951818
  H        -2.9908770691        1.5262101066        3.6609692145
  H        -5.2896464694        0.9804553447        3.0756487570
  H        -4.9851087865       -1.5464297060        2.5907325156
  H        -6.2918547159       -0.5532015552        1.7860147493
  H        -4.2993054680       -1.8747239080        0.4488253321
  H        -4.3106083876        1.0055864027        0.5622772799
      34
 i =     1003, time =     1003.000, E =      -403.3064853731
  C         5.1788356048       -0.9668527089       -2.8059779962
  F         5.0030159332       -0.5712223613       -4.0758809860
  F         4.9705441516       -2.2806189950       -2.8414527897
  F         6.4200700818       -0.5829176498       -2.4106689404
  O         4.1347352010       -0.5646705098       -1.9730158496
  C         4.3236603684        0.3544701293       -0.9544601658
  F         5.0352343843       -0.1076493210        0.1358371859
  F         5.0073713734        1.3767159247       -1.4928372916
  C         2.9825823189        1.0277625039       -0.3620792660
  F         3.3291637288        2.0024498300        0.5147605112
  F         2.3247560961        1.6134587987       -1.4286275280
  C         1.9721192445        0.0459559816        0.3921438390
  F         2.7182082883       -0.6310602131        1.3066273067
  F         1.5455734686       -0.8625755947       -0.5791118559
  O         0.8817967691        0.5801014291        0.9297735432
  C         0.3716125564        0.4058786595        2.2509737755
  F         0.4370267282       -0.8987480319        2.7120456434
  F         1.1862581055        1.1326689637        3.1457540360
  C        -1.0838379181        1.0202871696        2.2006153400
  O        -2.1232128377        0.0956573525        2.3924273014
  C        -3.2241149220        0.5732031210        3.2309242033
  C        -4.5072883274        0.5850604354        2.4016750137
  C        -5.1803716805       -0.7417539190        1.8639125611
  O        -4.7472532330       -1.0385645046        0.4666847851
  O        -4.3983433879        1.5176850214        1.3844286872
  H        -1.1737393281        1.4590375366        1.2043792431
  H        -1.0776903646        1.7729753623        2.9775510654
  H        -3.2250182972       -0.2015793820        3.9739410805
  H        -2.9680208055        1.5391530804        3.6634965977
  H        -5.2812390437        0.9706744627        3.0891257128
  H        -4.9910319474       -1.5745967964        2.5993100877
  H        -6.2956536479       -0.5685793581        1.8057532432
  H        -4.2844145179       -1.8967381987        0.4369585203
  H        -4.2700924544        1.0004884532        0.5844745153
      34
 i =     1004, time =     1004.000, E =      -403.3039162268
  C         5.1720363261       -0.9614859616       -2.8040478813
  F         5.0024333627       -0.5743168194       -4.0741830591
  F         4.9646385202       -2.2823933217       -2.8441289095
  F         6.4163031661       -0.5758693344       -2.4084674883
  O         4.1274415885       -0.5560169004       -1.9702895560
  C         4.3263345661        0.3497711723       -0.9568359345
  F         5.0340136780       -0.1076963147        0.1398620848
  F         5.0042360656        1.3788359188       -1.4938306455
  C         2.9833146835        1.0257253015       -0.3725513437
  F         3.3247044837        2.0029347568        0.5187175756
  F         2.3326853761        1.6192730492       -1.4324965336
  C         1.9676231033        0.0478061715        0.3935442344
  F         2.7226099097       -0.6237018448        1.3058748100
  F         1.5460285330       -0.8611798511       -0.5821630435
  O         0.8859959943        0.5783383653        0.9326761165
  C         0.3685690439        0.4074782571        2.2524761568
  F         0.4369124305       -0.9061317033        2.7086900544
  F         1.1821143375        1.1285565474        3.1490162444
  C        -1.0844487915        1.0226073170        2.1988125971
  O        -2.1285464587        0.0900880283        2.3981100015
  C        -3.2188577630        0.5778925328        3.2369476553
  C        -4.4971085629        0.5806172775        2.4080062853
  C        -5.1688521610       -0.7361944723        1.8708439810
  O        -4.7394278284       -1.0339786032        0.4653510283
  O        -4.3994167120        1.5205797946        1.3885508597
  H        -1.1930573992        1.4777115434        1.2080469602
  H        -1.0742848422        1.7675533562        2.9766839550
  H        -3.2117082924       -0.1870751907        4.0008242962
  H        -2.9477602079        1.5549986038        3.6664134892
  H        -5.2730123416        0.9609347639        3.1049546200
  H        -4.9978109458       -1.5983725906        2.5999483822
  H        -6.2896169452       -0.5849675839        1.8258730082
  H        -4.2694778871       -1.9157831742        0.4271733427
  H        -4.2274703520        0.9926186633        0.5993987148
      34
 i =     1005, time =     1005.000, E =      -403.3018905474
  C         5.1649596556       -0.9564686314       -2.8022335275
  F         5.0017793629       -0.5767826263       -4.0725962349
  F         4.9593255682       -2.2847566640       -2.8466258218
  F         6.4121537159       -0.5690611717       -2.4061238568
  O         4.1197569624       -0.5472281862       -1.9670368942
  C         4.3287553948        0.3458674145       -0.9585575777
  F         5.0327663243       -0.1079534616        0.1434245694
  F         5.0015629095        1.3816762080       -1.4946258586
  C         2.9830778427        1.0233852792       -0.3831145930
  F         3.3204833156        2.0033421235        0.5225809892
  F         2.3406833868        1.6248838952       -1.4362211523
  C         1.9646574444        0.0484532983        0.3939133961
  F         2.7272441080       -0.6166380729        1.3051560075
  F         1.5464628493       -0.8597338920       -0.5850072802
  O         0.8891545971        0.5773161292        0.9359048586
  C         0.3657656988        0.4087571790        2.2545960759
  F         0.4368239296       -0.9128053911        2.7048278219
  F         1.1776159978        1.1242850784        3.1518977869
  C        -1.0847852666        1.0243326494        2.1967877675
  O        -2.1334438035        0.0846029312        2.4036569915
  C        -3.2128875468        0.5814887647        3.2422795520
  C        -4.4880161666        0.5761294263        2.4152742613
  C        -5.1572614334       -0.7313472542        1.8778538971
  O        -4.7313397492       -1.0297178012        0.4647143484
  O        -4.4004748141        1.5239642579        1.3922659202
  H        -1.2111792334        1.4989707440        1.2115538722
  H        -1.0716066411        1.7686318443        2.9795664468
  H        -3.2042877864       -0.1737176315        4.0360696012
  H        -2.9316697397        1.5706530102        3.6679820966
  H        -5.2641352147        0.9511078227        3.1217532023
  H        -5.0045523002       -1.6141747722        2.5909944683
  H        -6.2732663307       -0.6010154923        1.8454170926
  H        -4.2593387277       -1.9229571800        0.4203191498
  H        -4.1830127531        0.9832209940        0.6080094656
      34
 i =     1006, time =     1006.000, E =      -403.3009124033
  C         5.1576993314       -0.9520008383       -2.8005379048
  F         5.0010213785       -0.5785692009       -4.0711586897
  F         4.9545821419       -2.2875494103       -2.8489026548
  F         6.4076235194       -0.5625608038       -2.4036320299
  O         4.1117190299       -0.5385217671       -1.9634619048
  C         4.3308203404        0.3430396373       -0.9594206582
  F         5.0314969432       -0.1084173756        0.1465015329
  F         4.9993932494        1.3851800746       -1.4952013070
  C         2.9819035267        1.0208732549       -0.3934048320
  F         3.3164772679        2.0036077733        0.5262559345
  F         2.3486816161        1.6303034315       -1.4398397407
  C         1.9634066760        0.0479173267        0.3931393183
  F         2.7320285062       -0.6099080953        1.3044982742
  F         1.5468563006       -0.8582738730       -0.5876153152
  O         0.8911966524        0.5771061529        0.9394684198
  C         0.3632662648        0.4095814321        2.2572325681
  F         0.4367415308       -0.9187006301        2.7004875224
  F         1.1727146397        1.1198645606        3.1543954782
  C        -1.0850023947        1.0254729730        2.1946115113
  O        -2.1377413697        0.0793248113        2.4089896465
  C        -3.2061319304        0.5840067360        3.2473461537
  C        -4.4801294054        0.5718247373        2.4235397523
  C        -5.1455248233       -0.7275851825        1.8848891727
  O        -4.7229710313       -1.0259865082        0.4647686608
  O        -4.4014494303        1.5275398769        1.3954301126
  H        -1.2273253427        1.5211904867        1.2159809817
  H        -1.0698689382        1.7752480822        2.9857495326
  H        -3.2027437060       -0.1587152151        4.0757886074
  H        -2.9209902908        1.5833314985        3.6666625032
  H        -5.2540249940        0.9412066762        3.1382936287
  H        -5.0098253009       -1.6207417295        2.5728364940
  H        -6.2486687821       -0.6150977621        1.8633550720
  H        -4.2559157182       -1.9146496760        0.4169634256
  H        -4.1380688367        0.9754343486        0.6143966616
      34
 i =     1007, time =     1007.000, E =      -403.3001908912
  C         5.1503436872       -0.9482536879       -2.7989580664
  F         5.0001273245       -0.5796378199       -4.0698978650
  F         4.9503984830       -2.2906223100       -2.8509234600
  F         6.4027098350       -0.5564469724       -2.4010273003
  O         4.1033856665       -0.5301124683       -1.9597759648
  C         4.3324440736        0.3415488329       -0.9592492535
  F         5.0302051516       -0.1090781002        0.1490718578
  F         4.9977596669        1.3892874982       -1.4955327231
  C         2.9798620334        1.0183196797       -0.4030751705
  F         3.3126551019        2.0036746411        0.5296539006
  F         2.3566352340        1.6356621244       -1.4433929484
  C         1.9639295098        0.0462744141        0.3911833256
  F         2.7369150832       -0.6034650970        1.3039244777
  F         1.5471914257       -0.8568375002       -0.5899791475
  O         0.8921169904        0.5777365853        0.9433337102
  C         0.3611168044        0.4098489011        2.2602600861
  F         0.4366592720       -0.9237952556        2.6956919811
  F         1.1673863316        1.1153074125        3.1565113028
  C        -1.0852405773        1.0261901624        2.1924910663
  O        -2.1412896667        0.0743469467        2.4140667201
  C        -3.1986030559        0.5854041761        3.2525532311
  C        -4.4734894998        0.5679053682        2.4327875681
  C        -5.1334337160       -0.7250620600        1.8917478065
  O        -4.7145288683       -1.0226786832        0.4655284100
  O        -4.4022330067        1.5309774365        1.3978941236
  H        -1.2408096930        1.5426554605        1.2222998849
  H        -1.0692249295        1.7848971732        2.9932583533
  H        -3.2066557428       -0.1394255085        4.1155609032
  H        -2.9163579283        1.5913435871        3.6614598299
  H        -5.2425826391        0.9314806978        3.1537351428
  H        -5.0118371427       -1.6193287395        2.5477765246
  H        -6.2201191385       -0.6255123364        1.8786836780
  H        -4.2581535976       -1.8928516104        0.4172641934
  H        -4.0946330187        0.9726539772        0.6231541947
      34
 i =     1008, time =     1008.000, E =      -403.2986811510
  C         5.1429737721       -0.9453618419       -2.7974865858
  F         4.9990676595       -0.5799632582       -4.0688285855
  F         4.9467533148       -2.2938422074       -2.8526551162
  F         6.3973792079       -0.5507749157       -2.3983625624
  O         4.0948521291       -0.5222035845       -1.9561771584
  C         4.3335601098        0.3416173208       -0.9579126670
  F         5.0288890243       -0.1099186690        0.1511186349
  F         4.9966844454        1.3939369973       -1.4955950578
  C         2.9770576734        1.0158553220       -0.4118088297
  F         3.3089833200        2.0034920926        0.5326966165
  F         2.3645455908        1.6410647642       -1.4469415325
  C         1.9661551335        0.0436553983        0.3880816062
  F         2.7418914040       -0.5971579693        1.3034347951
  F         1.5474523243       -0.8554653337       -0.5920934403
  O         0.8919773631        0.5791932925        0.9474249706
  C         0.3593428192        0.4094892327        2.2635337845
  F         0.4365877169       -0.9280982859        2.6904810976
  F         1.1616579253        1.1106340541        3.1582482427
  C        -1.0856128123        1.0267000382        2.1907169113
  O        -2.1439549328        0.0697332637        2.4188801701
  C        -3.1904152788        0.5856312527        3.2581842835
  C        -4.4680539916        0.5645315822        2.4429285675
  C        -5.1207099739       -0.7236918620        1.8980927899
  O        -4.7063515867       -1.0193492429        0.4670404907
  O        -4.4027241002        1.5340267253        1.3996229957
  H        -1.2511169418        1.5618162587        1.2309811112
  H        -1.0697529178        1.7944873614        2.9995568258
  H        -3.2151943744       -0.1143170161        4.1515421926
  H        -2.9176806210        1.5944587014        3.6520613972
  H        -5.2302818153        0.9224330916        3.1677312141
  H        -5.0086569989       -1.6136614696        2.5197633843
  H        -6.1932170093       -0.6307250099        1.8905564046
  H        -4.2621369656       -1.8650434655        0.4209193563
  H        -4.0546478094        0.9771423745        0.6372998563
      34
 i =     1009, time =     1009.000, E =      -403.2970698285
  C         5.1356609991       -0.9434190948       -2.7961127207
  F         4.9978172476       -0.5795351314       -4.0679530315
  F         4.9436223049       -2.2970936131       -2.8540658537
  F         6.3915631982       -0.5455579799       -2.3956757518
  O         4.0862260012       -0.5149554205       -1.9528306462
  C         4.3341212788        0.3434106014       -0.9553410574
  F         5.0275471295       -0.1109165184        0.1526326366
  F         4.9961770465        1.3990655680       -1.4953651702
  C         2.9736223508        1.0136103469       -0.4193304728
  F         3.3054289685        2.0030126868        0.5353182176
  F         2.3724165760        1.6465618789       -1.4505616814
  C         1.9698965696        0.0402396185        0.3839391001
  F         2.7469576546       -0.5909049167        1.3030023261
  F         1.5476266570       -0.8541995215       -0.5939616695
  O         0.8908966167        0.5814247554        0.9516292354
  C         0.3579473006        0.4084622137        2.2668943457
  F         0.4365469929       -0.9316377252        2.6848923064
  F         1.1555966598        1.1058723442        3.1596235531
  C        -1.0861949062        1.0271767177        2.1895938196
  O        -2.1456242708        0.0655182537        2.4234468847
  C        -3.1817807020        0.5846590368        3.2643511887
  C        -4.4637010664        0.5618138558        2.4538101768
  C        -5.1071403988       -0.7231765713        1.9035032670
  O        -4.6988288136       -1.0152919303        0.4693666411
  O        -4.4028699899        1.5365525184        1.4007416508
  H        -1.2579645949        1.5775064965        1.2417666872
  H        -1.0714505352        1.8013036923        3.0025462362
  H        -3.2271911047       -0.0833328244        4.1811985665
  H        -2.9241582153        1.5939491883        3.6388135777
  H        -5.2181008198        0.9147636746        3.1804148688
  H        -4.9985360380       -1.6092827209        2.4937525830
  H        -6.1731126129       -0.6296735012        1.8984300688
  H        -4.2618931832       -1.8426085370        0.4272573728
  H        -4.0192239816        0.9893964162        0.6574031983
      34
 i =     1010, time =     1010.000, E =      -403.2976774637
  C         5.1284652173       -0.9424756019       -2.7948234771
  F         4.9963570268       -0.5783586197       -4.0672613978
  F         4.9409669696       -2.3002847887       -2.8551251271
  F         6.3851811933       -0.5407829241       -2.3929767315
  O         4.0776081775       -0.5084540843       -1.9498567051
  C         4.3340994941        0.3470223339       -0.9515376127
  F         5.0261810223       -0.1120449925        0.1536082882
  F         4.9962310933        1.4046070546       -1.4948248175
  C         2.9697087769        1.0117149503       -0.4254161691
  F         3.3019603458        2.0021879502        0.5374683225
  F         2.3802048168        1.6521576941       -1.4543178642
  C         1.9748746830        0.0362429642        0.3789168472
  F         2.7520972875       -0.5846896205        1.3025778301
  F         1.5477059189       -0.8530823733       -0.5955935142
  O         0.8890367087        0.5843502864        0.9558057572
  C         0.3569101035        0.4067564078        2.2701724373
  F         0.4365642049       -0.9344492511        2.6789742910
  F         1.1492910952        1.1010574884        3.1606793795
  C        -1.0870201604        1.0276912461        2.1893862520
  O        -2.1462106597        0.0617114632        2.4277998229
  C        -3.1729841702        0.5824998053        3.2709879071
  C        -4.4602469305        0.5598145320        2.4652315159
  C        -5.0927339554       -0.7231334521        1.9075907030
  O        -4.6922287815       -1.0099024820        0.4725492981
  O        -4.4026961699        1.5385514786        1.4015340760
  H        -1.2613348686        1.5890516964        1.2536329926
  H        -1.0742443715        1.8036404763        3.0012098130
  H        -3.2412628068       -0.0478403156        4.2036069705
  H        -2.9344326078        1.5923271084        3.6225657843
  H        -5.2073179624        0.9092483784        3.1922628345
  H        -4.9803446902       -1.6117280832        2.4743560097
  H        -6.1622640318       -0.6220928387        1.9021895650
  H        -4.2523012265       -1.8351748046        0.4356005627
  H        -3.9881995367        1.0080163649        0.6814951746
      34
 i =     1011, time =     1011.000, E =      -403.3000801864
  C         5.1214324822       -0.9425364268       -2.7936042521
  F         4.9946757341       -0.5764548409       -4.0667336102
  F         4.9387383266       -2.3033440614       -2.8558037509
  F         6.3781807046       -0.5364415287       -2.3902552718
  O         4.0690899113       -0.5027108563       -1.9473289042
  C         4.3334854247        0.3524654952       -0.9465838276
  F         5.0247951453       -0.1132745381        0.1540440173
  F         4.9968218460        1.4104900321       -1.4939632422
  C         2.9654826938        1.0103001692       -0.4299016556
  F         3.2985478777        2.0009698520        0.5391129567
  F         2.3877961742        1.6577971104       -1.4582299395
  C         1.9807488013        0.0319002505        0.3732149229
  F         2.7572525206       -0.5785453503        1.3021048020
  F         1.5476851240       -0.8521539045       -0.5970006990
  O         0.8865864937        0.5878712497        0.9597973666
  C         0.3561884944        0.4043871485        2.2731955408
  F         0.4366631887       -0.9365760805        2.6727649083
  F         1.1428284652        1.0962281110        3.1614842602
  C        -1.0880798224        1.0281880457        2.1902791740
  O        -2.1456574434        0.0583078661        2.4319795695
  C        -3.1643422211        0.5792411365        3.2778757638
  C        -4.4574756714        0.5585588274        2.4769621267
  C        -5.0777798532       -0.7233122615        1.9101558903
  O        -4.6864610564       -1.0031643541        0.4765760791
  O        -4.4023180446        1.5401369206        1.4024086767
  H        -1.2614604873        1.5962582937        1.2649527902
  H        -1.0780096861        1.8010886770        2.9958773004
  H        -3.2559610179       -0.0104064185        4.2195522406
  H        -2.9468646016        1.5926680719        3.6043771876
  H        -5.1991939178        0.9065671447        3.2038448584
  H        -4.9540260334       -1.6237411279        2.4641036762
  H        -6.1592404853       -0.6087291409        1.9021949872
  H        -4.2331167296       -1.8429840848        0.4456562830
  H        -3.9599272581        1.0299867166        0.7055477556
      34
 i =     1012, time =     1012.000, E =      -403.3012340703
  C         5.1145935498       -0.9435617553       -2.7924397290
  F         4.9927711508       -0.5738607796       -4.0663418397
  F         4.9368863825       -2.3062152305       -2.8560764091
  F         6.3705481511       -0.5325651694       -2.3874938786
  O         4.0607634724       -0.4976884623       -1.9452783198
  C         4.3322886094        0.3596709415       -0.9406367333
  F         5.0233960831       -0.1145737914        0.1539419187
  F         4.9979058447        1.4166380015       -1.4927774907
  C         2.9611147499        1.0094977227       -0.4326872599
  F         3.2951649193        1.9993242459        0.5402341041
  F         2.3950528887        1.6633885234       -1.4622685049
  C         1.9871470191        0.0274487234        0.3670559452
  F         2.7623190157       -0.5725475263        1.3015387649
  F         1.5475634582       -0.8514512577       -0.5981979375
  O         0.8837457362        0.5918781827        0.9634422732
  C         0.3557198527        0.4013952905        2.2757945681
  F         0.4368567348       -0.9380705837        2.6662982555
  F         1.1362854715        1.0914211196        3.1621423236
  C        -1.0893291779        1.0284927681        2.1923464712
  O        -2.1439402236        0.0552859043        2.4360342701
  C        -3.1561553456        0.5750963323        3.2846962205
  C        -4.4551775667        0.5580474188        2.4887638719
  C        -5.0627391953       -0.7237547042        1.9112782363
  O        -4.6810923870       -0.9956674078        0.4813845758
  O        -4.4019128829        1.5414825198        1.4038097332
  H        -1.2587600091        1.5992858829        1.2738493267
  H        -1.0825912405        1.7945711801        2.9882043827
  H        -3.2699188812        0.0256542459        4.2313437476
  H        -2.9598795408        1.5975254863        3.5851477344
  H        -5.1946070555        0.9071184185        3.2155126440
  H        -4.9208148601       -1.6434161686        2.4625021867
  H        -6.1595880160       -0.5912818861        1.8992147457
  H        -4.2092340451       -1.8566669457        0.4573819833
  H        -3.9317228552        1.0516171278        0.7248395675
      34
 i =     1013, time =     1013.000, E =      -403.3003987567
  C         5.1079620106       -0.9454685851       -2.7913131884
  F         4.9906498058       -0.5706283564       -4.0660534807
  F         4.9353640860       -2.3088549948       -2.8559248952
  F         6.3623287554       -0.5292363766       -2.3846822492
  O         4.0527296442       -0.4933361826       -1.9436995009
  C         4.3305366490        0.3684913758       -0.9339201283
  F         5.0219914901       -0.1159106457        0.1533073899
  F         4.9994236495        1.4229726490       -1.4912699980
  C         2.9567722680        1.0094357679       -0.4337413435
  F         3.2917893188        1.9972169498        0.5408322543
  F         2.4018901845        1.6688457251       -1.4663830991
  C         1.9936935661        0.0231139674        0.3606690238
  F         2.7671682519       -0.5668063322        1.3008585024
  F         1.5473438540       -0.8510078200       -0.5991992794
  O         0.8807103713        0.5962586937        0.9665846533
  C         0.3554268843        0.3978462698        2.2778125744
  F         0.4371432892       -0.9389969877        2.6596067921
  F         1.1297268569        1.0866680033        3.1627730403
  C        -1.0906980274        1.0283492502        2.1955304908
  O        -2.1410701445        0.0526164545        2.4400110132
  C        -3.1486708773        0.5704379462        3.2911093879
  C        -4.4531848933        0.5582640840        2.5004128595
  C        -5.0480677027       -0.7247405887        1.9112579016
  O        -4.6756168757       -0.9881433246        0.4868974382
  O        -4.4016307659        1.5427168314        1.4060668149
  H        -1.2537378880        1.5984265086        1.2786890305
  H        -1.0878184425        1.7861350671        2.9808749000
  H        -3.2819511751        0.0569732547        4.2421722987
  H        -2.9722468094        1.6077909556        3.5653589554
  H        -5.1937633446        0.9108821063        3.2271481507
  H        -4.8829809558       -1.6651285957        2.4667527985
  H        -6.1579651322       -0.5720609271        1.8942636347
  H        -4.1868144898       -1.8647850716        0.4705506422
  H        -3.9013765223        1.0702059215        0.7363161581
      34
 i =     1014, time =     1014.000, E =      -403.2992014623
  C         5.1015363579       -0.9481364160       -2.7902076510
  F         4.9883238781       -0.5668215862       -4.0658355767
  F         4.9341278022       -2.3112311988       -2.8553407648
  F         6.3535851901       -0.5265492894       -2.3818221623