34
Lattice="22.698 0.0 0.0 0.0 13.945 0.0 0.0 0.0 14.718" Properties=species:S:1:pos:R:3:forces:R:3 energy=-10974.560475299768 pbc="T T T"
C        5.19121214      -0.97775083      -2.81013599      -0.70489414       0.38857629      -0.07489978
F        5.00408606      -0.56339474      -4.07942224       0.01356207       0.85005063       0.08311244
F        4.98407722      -2.27943476      -2.83575942       0.98667540      -1.96152953       0.02312148
F        6.42659770      -0.59758498      -2.41482391      -0.39992148      -0.33428055       0.01051724
O        4.14781621      -0.58070764      -1.97618072      -1.09199781       1.21042186       1.63718462
C        4.31802985       0.36513579      -0.94862266       0.15133501      -0.00288963       0.00375185
F        5.03752929      -0.10816047       0.12655869      -0.20099442      -0.34427283      -0.63371269
F        5.01482778       1.37482678      -1.49032626       0.57926364       1.64857377       0.30515666
C        2.97829590       1.03043487      -0.34285956      -1.00551918      -0.79387624      -1.40397155
F        3.33878592       2.00153517       0.50694080       0.30869938       0.27402794       0.30655261
F        2.30932346       1.60140090      -1.42022845       0.20180809      -0.14046600       0.59250843
C        1.98445095       0.03881695       0.38699736       0.56019915      -1.23301895      -0.47320385
F        2.71048115      -0.64637538       1.30817943       0.91635021      -0.24605406       0.05960193
F        1.54468908      -0.86509059      -0.57249869       0.09184095       0.25208117       0.16872216
O        0.87091718       0.58537329       0.92475741      -0.72945003       0.54945764       0.25533329
C        0.37809600       0.40240660       2.25006547      -0.02866655       0.31813803       0.88892527
F        0.43745811      -0.88242761       2.71735469       0.23729422       0.36097091      -0.59454263
F        1.19376544       1.14037553       3.13810326      -0.31082201      -0.41335034      -0.71422997
C       -1.08117435       1.01478545       2.20384144       0.88308539       0.47773945       0.03044322
O       -2.11198754       0.10645764       2.38111579      -0.29884440      -0.60684348       0.38209150
C       -3.23299337       0.56000174       3.21578860       0.40891600      -1.93878187      -1.14516609
C       -4.53016599       0.59290782       2.39127964      -0.59993686      -0.80168257       0.59059867
C       -5.20279127      -0.75268255       1.84978132       0.79470982       1.45898352      -0.62849068
O       -4.76326846      -1.04658180       0.47145139      -1.09713305       1.95296062       1.04521981
O       -4.39614074       1.51385041       1.37466798       0.10215744       0.91074142      -1.67171322
H       -1.13465337       1.43408717       1.19437896      -0.10885239       0.50518497      -0.01022818
H       -1.08561483       1.79806771       2.98380981       0.01312403       0.02817018      -0.30829916
H       -3.26750943      -0.23824464       3.95101823      -0.38368754       0.03092483       0.76717114
H       -3.01481209       1.51837697       3.66020733       0.00426890       0.55742052       0.23253698
H       -5.29897687       0.99039527       3.06573608      -0.12901303       0.01064077       0.44649103
H       -4.98029402      -1.51929235       2.57780163      -0.08747242      -0.74427465       0.04148893
H       -6.28119914      -0.53974584       1.76746265       0.18469813      -0.23933003       0.18549831
H       -4.30763411      -1.86132323       0.46190955       1.15157781      -1.66965873       0.06560838
H       -4.34936244       1.00904821       0.53595985       0.15469094       0.07325076       0.14086915
34
Lattice="22.698 0.0 0.0 0.0 13.945 0.0 0.0 0.0 14.718" Properties=species:S:1:pos:R:3:forces:R:3 energy=-10974.567767026094 pbc="T T T"
C        5.18525990      -0.97234945      -2.80801358      -0.58762285       0.11870950      -0.10807285
F        5.00355792      -0.56755940      -4.07764464      -0.02727007       0.98786950      -0.02745586
F        4.97704051      -2.27958697      -2.83864513       1.06399638      -1.73237598       0.15369351
F        6.42348054      -0.59016613      -2.41276954      -0.57752381      -0.33545590       0.09101636
O        4.14155928      -0.57296958      -1.97503155      -0.94046629       0.93026412       1.43689116
C        4.32084998       0.35968151      -0.95164899      -0.01213512       0.30236076       0.26781499
F        5.03641448      -0.10780811       0.13138869      -0.12853924      -0.38113751      -0.75121476
F        5.01092043       1.37536627      -1.49166425       0.70550371       1.59526667       0.32478882
C        2.98089111       1.02937045      -0.35206486      -1.12531664      -0.67659849      -1.00718580
F        3.33386617       2.00195845       0.51080685       0.42787678       0.13408663       0.17251976
F        2.31697484       1.60748582      -1.42456115       0.25572018      -0.22042167       0.52440269
C        1.97785275       0.04293460       0.38988719       1.07638117      -1.36465896      -0.78820259
F        2.71413728      -0.63863885       1.30739548       0.81692502      -0.31090263       0.03108581
F        1.54511924      -0.86388892      -0.57587492       0.04740447       0.21985788       0.27428754
O        0.87670192       0.58249392       0.92715474      -1.14399538       0.80734387       0.36725967
C        0.37481786       0.40412345       2.25015929       0.09066936       0.04775351       0.89709357
F        0.43719711      -0.89078385       2.71490357       0.17841938       0.77197831      -0.80101913
F        1.19012125       1.13661298       3.14211568      -0.43112915      -0.35731087      -0.73656437
C       -1.08279582       1.01756144       2.20225426       0.72121101      -0.06254917      -0.06440547
O       -2.11762455       0.10116541       2.38671971       0.08079706      -0.35790148       0.17191717
C       -3.22878151       0.56730399       3.22389888       0.56606814      -1.74663076      -1.35056619
C       -4.51837801       0.58922684       2.39615462      -0.86926149      -0.60426423       0.80342360
C       -5.19175075      -0.74747238       1.85696551       0.42143153       0.63274374      -0.29519071
O       -4.75506934      -1.04297857       0.46872235      -0.63512509       1.34455035       1.14663016
O       -4.39726145       1.51544245       1.37988046       0.06428586       1.07874388      -1.10149600
H       -1.15402065       1.44423921       1.19982492      -0.03670916       0.48537758      -0.09314594
H       -1.08156412       1.78394544       2.98079044      -0.01848616       0.32929616      -0.02298297
H       -3.24386118      -0.21882204       3.95749518      -0.50199533      -0.22772906       1.04141262
H       -2.99087707       1.52621011       3.66096921      -0.11269336       0.53380258       0.18443342
H       -5.28964647       0.98045534       3.07564876      -0.09641878       0.01661475       0.37234466
H       -4.98510879      -1.54642971       2.59073252      -0.11578880      -0.10757157      -0.45477148
H       -6.29185472      -0.55320156       1.78601475       0.71628334      -0.20079258       0.12393795
H       -4.29930547      -1.87472391       0.44882533       0.68553523      -0.89982669       0.12717671
H       -4.31060839       1.00558640       0.56227728       0.18405616      -0.17092041      -0.43041903
34
Lattice="22.698 0.0 0.0 0.0 13.945 0.0 0.0 0.0 14.718" Properties=species:S:1:pos:R:3:forces:R:3 energy=-10974.528548996626 pbc="T T T"
C        5.17883560      -0.96685271      -2.80597800      -0.46678574      -0.16182116      -0.13129462
F        5.00301593      -0.57122236      -4.07588099      -0.07990406       1.11940709      -0.12942646
F        4.97054415      -2.28061900      -2.84145279       1.16316347      -1.46163440       0.25900635
F        6.42007008      -0.58291765      -2.41066894      -0.70187801      -0.39413756       0.19858600
O        4.13473520      -0.56467051      -1.97301585      -0.77858737       0.58790946       1.17832479
C        4.32366037       0.35447013      -0.95446017      -0.16952701       0.63787924       0.54200797
F        5.03523438      -0.10764932       0.13583719      -0.07997129      -0.40520374      -0.83407545
F        5.00737137       1.37671592      -1.49283729       0.81468909       1.51682773       0.35381546
C        2.98258232       1.02776250      -0.36207927      -1.19359214      -0.53434714      -0.56972224
F        3.32916373       2.00244983       0.51476051       0.47887119      -0.01270718       0.00669521
F        2.32475610       1.61345880      -1.42862753       0.29146913      -0.31254508       0.38863340
C        1.97211924       0.04595598       0.39214384       1.54030329      -1.45792715      -1.06587945
F        2.71820829      -0.63106021       1.30662731       0.65098714      -0.43371901       0.03086104
F        1.54557347      -0.86257559      -0.57911186       0.00164094       0.16228682       0.36573884
O        0.88179677       0.58010143       0.92977354      -1.48513898       1.04373142       0.47054653
C        0.37161256       0.40587866       2.25097378       0.20139997      -0.19370752       0.85631082
F        0.43702673      -0.89874803       2.71204564       0.11043553       1.14304893      -0.97992235
F        1.18625811       1.13266896       3.14575404      -0.55256210      -0.33158695      -0.74064432
C       -1.08383792       1.02028717       2.20061534       0.53679807      -0.50488368      -0.20392994
O       -2.12321284       0.09565735       2.39242730       0.42229344      -0.10158635      -0.04127818
C       -3.22411492       0.57320312       3.23092420       0.73515188      -1.50588239      -1.24715583
C       -4.50728833       0.58506044       2.40167501      -1.13268128      -0.34450754       1.00939783
C       -5.18037168      -0.74175392       1.86391256       0.17483471      -0.19794838      -0.01946087
O       -4.74725323      -1.03856450       0.46668479       0.01541776       0.28494178       1.16706209
O       -4.39834339       1.51768502       1.38442869       0.01428981       1.08148869      -0.70648511
H       -1.17373933       1.45903754       1.20437924       0.04184962       0.40487508      -0.09261932
H       -1.07769036       1.77297536       2.97755107      -0.04891393       0.57958274       0.24782029
H       -3.22501830      -0.20157938       3.97394108      -0.57799584      -0.28607570       1.09034078
H       -2.96802081       1.53915308       3.66349660      -0.27115786       0.30321664       0.04069022
H       -5.28123904       0.97067446       3.08912571      -0.01887941       0.00430224       0.24569807
H       -4.99103195      -1.57459680       2.59931009      -0.08940559       0.45873947      -0.82938156
H       -6.29565365      -0.56857936       1.80575324       1.02748568      -0.10555444       0.03982971
H       -4.28441452      -1.89673820       0.43695852       0.00477207       0.31019135       0.21745920
H       -4.27009245       1.00048845       0.58447452       0.22002227      -0.28956203      -0.75978221
34
Lattice="22.698 0.0 0.0 0.0 13.945 0.0 0.0 0.0 14.718" Properties=species:S:1:pos:R:3:forces:R:3 energy=-10974.4586389725 pbc="T T T"
C        5.17203633      -0.96148596      -2.80404788      -0.34530330      -0.43496183      -0.14410191
F        5.00243336      -0.57431682      -4.07418306      -0.14064729       1.23784303      -0.21876648
F        4.96463852      -2.28239332      -2.84412891       1.16701287      -1.15979875       0.35286759
F        6.41630317      -0.57586933      -2.40846749      -0.75322776      -0.47287157       0.27995753
O        4.12744159      -0.55601690      -1.97028956      -0.64838706       0.22403373       0.87283471
C        4.32633457       0.34977117      -0.95683593      -0.31539922       0.98988089       0.81426938
F        5.03401368      -0.10769631       0.13986208      -0.05246988      -0.41380122      -0.91051502
F        5.00423607       1.37883592      -1.49383065       0.90999790       1.41829388       0.39014822
C        2.98331468       1.02572530      -0.37255134      -1.20648759      -0.37695660      -0.11349247
F        3.32470448       2.00293476       0.51871758       0.46878456      -0.15271928      -0.18440262
F        2.33268538       1.61927305      -1.43249653       0.13533401      -0.40051269       0.28430448
C        1.96762310       0.04780617       0.39354423       1.90517705      -1.49759857      -1.28370175
F        2.72260991      -0.62370184       1.30587481       0.45795487      -0.58007399       0.06634568
F        1.54602853      -0.86117985      -0.58216304      -0.04085398       0.09887657       0.40749587
O        0.88599599       0.57833837       0.93267612      -1.72558186       1.22845591       0.54085987
C        0.36856904       0.40747826       2.25247616       0.29896548      -0.39918373       0.76872414
F        0.43691243      -0.90613170       2.70869005       0.05079483       1.39799019      -0.99760426
F        1.18211434       1.12855655       3.14901624      -0.69816814      -0.31318196      -0.74954868
C       -1.08444879       1.02260732       2.19881260       0.34157685      -0.74043829      -0.27645817
O       -2.12854646       0.09008803       2.39811000       0.72344245       0.13966713      -0.22503749
C       -3.21885776       0.57789253       3.23694766       0.88762896      -1.36081364      -0.86086282
C       -4.49710856       0.58061728       2.40800629      -1.35357924      -0.05563522       1.16602947
C       -5.16885216      -0.73619447       1.87084398       0.08864130      -0.88659729       0.09771379
O       -4.73942783      -1.03397860       0.46535103       0.43557252      -0.53908655       1.15590743
O       -4.39941671       1.52057979       1.38855086       0.02524153       0.81201432      -0.67508165
H       -1.19305740       1.47771154       1.20804696       0.12496564       0.27006387      -0.01679860
H       -1.07428484       1.76755336       2.97668395      -0.07598008       0.67907816       0.39170450
H       -3.21170829      -0.18707519       4.00082430      -0.61525015      -0.11978362       0.87355084
H       -2.94776021       1.55499860       3.66641349      -0.43563515      -0.01996516      -0.14084934
H       -5.27301234       0.96093476       3.10495462       0.06794703      -0.00911384       0.10129771
H       -4.99781095      -1.59837259       2.59994838       0.00393250       0.83296839      -1.00205599
H       -6.28961695      -0.58496758       1.82587301       1.07744919       0.03555146      -0.06013882
H       -4.26947789      -1.91578317       0.42717334      -0.50117083       1.24010821       0.30618713
H       -4.22747035       0.99261866       0.59939871       0.19174629      -0.15961087      -0.65953834
34
Lattice="22.698 0.0 0.0 0.0 13.945 0.0 0.0 0.0 14.718" Properties=species:S:1:pos:R:3:forces:R:3 energy=-10974.403517411609 pbc="T T T"
C        5.16495966      -0.95646863      -2.80223353      -0.22861605      -0.68407556      -0.14779893
F        5.00177936      -0.57678263      -4.07259623      -0.20475070       1.33743956      -0.29393708
F        4.95932557      -2.28475666      -2.84662582       1.12142222      -0.84551593       0.43334626
F        6.41215372      -0.56906117      -2.40612386      -0.74970702      -0.60606194       0.29180377
O        4.11975696      -0.54722819      -1.96703689      -0.58585989      -0.13646360       0.53449054
C        4.32875539       0.34586741      -0.95855758      -0.44301077       1.33940366       1.06875727
F        5.03276632      -0.10795346       0.14342457      -0.04337292      -0.40713375      -0.95601314
F        5.00156291       1.38167621      -1.49462586       0.99140662       1.30661431       0.43272673
C        2.98307784       1.02338528      -0.38311459      -1.16698923      -0.21411188       0.33984912
F        3.32048332       2.00334212       0.52258099       0.42358204      -0.27904731      -0.37110290
F        2.34068339       1.62488390      -1.43622115       0.00043049      -0.37669769       0.20877863
C        1.96465744       0.04845330       0.39391340       2.13473231      -1.47274615      -1.42312898
F        2.72724411      -0.61663807       1.30515601       0.29575032      -0.65725623       0.12024795
F        1.54646285      -0.85973389      -0.58500728      -0.08046493       0.02768441       0.46509166
O        0.88915460       0.57731613       0.93590486      -1.85148241       1.34690636       0.55520417
C        0.36576570       0.40875718       2.25459608       0.37831500      -0.56598159       0.64304121
F        0.43682393      -0.91280539       2.70482782       0.01201551       1.53280117      -0.94133579
F        1.17761600       1.12428508       3.15189779      -0.79356141      -0.29348395      -0.75582052
C       -1.08478527       1.02433265       2.19678777       0.14856565      -0.72823146      -0.18849912
O       -2.13344380       0.08460293       2.40365699       0.99456553       0.34321407      -0.35541470
C       -3.21288755       0.58148876       3.24227955       0.97768271      -1.34224183      -0.33024491
C       -4.48801617       0.57612943       2.41527426      -1.50080019       0.22800417       1.24172809
C       -5.15726143      -0.73134725       1.87785390       0.18159772      -1.35081328       0.03156815
O       -4.73133975      -1.02971780       0.46471435       0.46536102      -0.87804281       1.14581788
O       -4.40047481       1.52396426       1.39226592       0.13843806       0.31697854      -0.91346105
H       -1.21117923       1.49897074       1.21155387       0.20639531       0.10034362       0.09612899
H       -1.07160664       1.76863184       2.97956645      -0.09824972       0.57850446       0.34479860
H       -3.20428779      -0.17371763       4.03606960      -0.61388444       0.17183103       0.46734798
H       -2.93166974       1.57065301       3.66798210      -0.56526549      -0.31088113      -0.30171769
H       -5.26413521       0.95110782       3.12175320       0.12881591      -0.00775189      -0.02696842
H       -5.00455230      -1.61417477       2.59099447       0.15339248       0.96476343      -0.96150789
H       -6.27326633      -0.60101549       1.84541709       0.86152109       0.20534166      -0.16778277
H       -4.25933873      -1.92295718       0.42031915      -0.70160677       1.61728552       0.36546971
H       -4.18301275       0.98322099       0.60800947       0.05080345       0.16829662      -0.23228503
34
Lattice="22.698 0.0 0.0 0.0 13.945 0.0 0.0 0.0 14.718" Properties=species:S:1:pos:R:3:forces:R:3 energy=-10974.37690075742 pbc="T T T"
C        5.15769933      -0.95200084      -2.80053790      -0.11865630      -0.89707142      -0.14413081
F        5.00102138      -0.57856920      -4.07115869      -0.26792722       1.41368736      -0.34797090
F        4.95458214      -2.28754941      -2.84890265       1.10220755      -0.55163501       0.50413026
F        6.40762352      -0.56256080      -2.40363203      -0.75510521      -0.76110824       0.22231029
O        4.11171903      -0.53852177      -1.96346190      -0.48988979      -0.49269107       0.18398041
C        4.33082034       0.34303964      -0.95942066      -0.54923060       1.66429227       1.28774919
F        5.03149694      -0.10841738       0.14650153      -0.04412727      -0.38752911      -0.99759465
F        4.99939325       1.38518007      -1.49520131       1.05556138       1.18843136       0.48051074
C        2.98190353       1.02087325      -0.39340483      -1.07948067      -0.05172342       0.77166528
F        3.31647727       2.00360777       0.52625593       0.36207140      -0.39141062      -0.54538462
F        2.34868162       1.63030343      -1.43983974      -0.08784189      -0.11980327       0.12873745
C        1.96340668       0.04791733       0.39313932       2.20781787      -1.37794388      -1.47127274
F        2.73202851      -0.60990810       1.30449827       0.20119463      -0.56507528       0.16527548
F        1.54685630      -0.85827387      -0.58761532      -0.11484715      -0.04656036       0.48084653
O        0.89119665       0.57710615       0.93946842      -1.86005521       1.39358323       0.50033357
C        0.36326626       0.40958143       2.25723257       0.43565467      -0.69309669       0.48675730
F        0.43674153      -0.91870063       2.70048752       0.00027571       1.57644476      -0.89639180
F        1.17271464       1.11986456       3.15439548      -0.84068420      -0.26903125      -0.75191309
C       -1.08500239       1.02547297       2.19461151      -0.02620908      -0.52672642       0.06947501
O       -2.13774137       0.07932481       2.40898965       1.24245370       0.49788951      -0.42381053
C       -3.20613193       0.58400674       3.24734615       0.96256838      -1.39486118       0.17486722
C       -4.48012941       0.57182474       2.42353975      -1.55211254       0.47965447       1.22281884
C       -5.14552482      -0.72758518       1.88488917       0.44128572      -1.54227056      -0.21988758
O       -4.72297103      -1.02598651       0.46476866       0.12178813      -0.70220369       1.16977011
O       -4.40144943       1.52753988       1.39543011       0.31678624      -0.22893316      -1.16105547
H       -1.22732534       1.52119049       1.21598098       0.27806232      -0.07884739       0.19762741
H       -1.06986894       1.77524808       2.98574953      -0.11425345       0.31682888       0.13849373
H       -3.20274371      -0.15871522       4.07578861      -0.56997666       0.44787443       0.00556693
H       -2.92099029       1.58333150       3.66666250      -0.63171264      -0.48747833      -0.40564834
H       -5.25402499       0.94120668       3.13829363       0.13916222       0.01829904      -0.11479856
H       -5.00982530      -1.62074173       2.57283649       0.34067898       0.83363014      -0.72102119
H       -6.24866878      -0.61509776       1.86335507       0.41285805       0.38314808      -0.27258980
H       -4.25591572      -1.91464968       0.41696343      -0.59136826       1.40929990       0.38197771
H       -4.13806884       0.97543435       0.61439666      -0.15754443       0.52298351       0.24761874
34
Lattice="22.698 0.0 0.0 0.0 13.945 0.0 0.0 0.0 14.718" Properties=species:S:1:pos:R:3:forces:R:3 energy=-10974.357267415706 pbc="T T T"
C        5.15034369      -0.94825369      -2.79895807      -0.01776476      -1.06470115      -0.13488618
F        5.00012732      -0.57963782      -4.06989786      -0.32609549       1.46335659      -0.37716112
F        4.95039848      -2.29062231      -2.85092346       1.06031278      -0.28944523       0.56934776
F        6.40270983      -0.55644697      -2.40102730      -0.82097925      -0.86987445       0.11815934
O        4.10338567      -0.53011247      -1.95977596      -0.33193276      -0.82979863      -0.14448665
C        4.33244407       0.34154883      -0.95924925      -0.63199214       1.94104034       1.45044307
F        5.03020515      -0.10907810       0.14907186      -0.04791798      -0.35412162      -1.03088969
F        4.99775967       1.38928750      -1.49553272       1.09943827       1.06737141       0.52983383
C        2.97986203       1.01831968      -0.40307517      -0.94963290       0.11105977       1.16599841
F        3.31265510       2.00367464       0.52965390       0.29611304      -0.49111233      -0.69950395
F        2.35663523       1.63566212      -1.44339295      -0.08518318       0.08653330       0.00910420
C        1.96392951       0.04627441       0.39118333       2.11966917      -1.21507402      -1.42622522
F        2.73691508      -0.60346510       1.30392448       0.17670987      -0.26753541       0.16562410
F        1.54719143      -0.85683750      -0.58997915      -0.14615528      -0.12642495       0.49135448
O        0.89211699       0.57773659       0.94333371      -1.75765672       1.37014622       0.37470819
C        0.36111680       0.40984890       2.26026009       0.46739940      -0.78067402       0.30645053
F        0.43665927      -0.92379526       2.69569198       0.02107600       1.55868700      -0.81782783
F        1.16738633       1.11530741       3.15651130      -0.78781149      -0.22882348      -0.74604119
C       -1.08524058       1.02619016       2.19249107      -0.16687129      -0.25806845       0.43106917
O       -2.14128967       0.07434695       2.41406672       1.46426054       0.60389355      -0.43714626
C       -3.19860306       0.58540418       3.25255323       0.82021587      -1.45689348       0.52777308
C       -4.47348950       0.56790537       2.43278757      -1.49925963       0.67915348       1.11185400
C       -5.13343372      -0.72506206       1.89174781       0.78751720      -1.43518501      -0.63940292
O       -4.71452887      -1.02267868       0.46552841      -0.43923178       0.03584311       1.24753191
O       -4.40223301       1.53097744       1.39789412       0.48500123      -0.64383878      -1.21902265
H       -1.24080969       1.54265546       1.22229988       0.33189787      -0.24070715       0.24678154
H       -1.06922493       1.78489717       2.99325835      -0.12243339      -0.00615332      -0.12643979
H       -3.20665574      -0.13942551       4.11556090      -0.48332009       0.60786306      -0.39602983
H       -2.91635793       1.59134359       3.66145983      -0.62209853      -0.51156546      -0.43831261
H       -5.24258264       0.93148070       3.15373514       0.08968049       0.07086657      -0.15099907
H       -5.01183714      -1.61932874       2.54777652       0.54238400       0.44442599      -0.30850483
H       -6.22011914      -0.62551234       1.87868368      -0.17210861       0.54341979      -0.36102059
H       -4.25815360      -1.89285161       0.41726419      -0.18234356       0.62784665       0.35041895
H       -4.09463302       0.97265398       0.62315419      -0.36046998       0.75933644       0.56287417
34
Lattice="22.698 0.0 0.0 0.0 13.945 0.0 0.0 0.0 14.718" Properties=species:S:1:pos:R:3:forces:R:3 energy=-10974.316185297435 pbc="T T T"
C        5.14297377      -0.94536184      -2.79748659       0.07113173      -1.18145850      -0.12151373
F        4.99906766      -0.57996326      -4.06882859      -0.37558953       1.48380439      -0.38145429
F        4.94675331      -2.29384221      -2.85265512       1.01240121      -0.06204105       0.63190366
F        6.39737921      -0.55077492      -2.39836256      -0.95574037      -0.89615386       0.04346200
O        4.09485213      -0.52220358      -1.95617716      -0.15353544      -1.09561938      -0.41835951
C        4.33356011       0.34161732      -0.95791267      -0.69071052       2.14705864       1.53738326
F        5.02888902      -0.10991867       0.15111863      -0.05073760      -0.30969246      -1.04905905
F        4.99668445       1.39393700      -1.49559506       1.11806867       0.94331393       0.57539887
C        2.97705767       1.01585532      -0.41180883      -0.78543561       0.27309231       1.50874348
F        3.30898332       2.00349209       0.53269662       0.23122584      -0.58452529      -0.82919429
F        2.36454559       1.64106476      -1.44694153      -0.07752441       0.18602546      -0.14091452
C        1.96615513       0.04365540       0.38808161       1.88691568      -0.99182877      -1.29559338
F        2.74189140      -0.59715797       1.30343480       0.17707575      -0.10647635       0.11265608
F        1.54745232      -0.85546533      -0.59209344      -0.17045226      -0.20941672       0.48451077
O        0.89197736       0.57919329       0.94742497      -1.56058335       1.28471621       0.18738636
C        0.35934282       0.40948923       2.26353378       0.47112343      -0.83073218       0.10812876
F        0.43658772      -0.92809829       2.69048110       0.06070767       1.50354584      -0.74411757
F        1.16165793       1.11063405       3.15824824      -0.65541508      -0.17396812      -0.71206524
C       -1.08561281       1.02670004       2.19071691      -0.26123689      -0.04132348       0.81045747
O       -2.14395493       0.06973326       2.41888017       1.65146883       0.66108801      -0.40914157
C       -3.19041528       0.58563125       3.25818428       0.55618589      -1.49290477       0.66704111
C       -4.46805399       0.56453158       2.44292857      -1.34762232       0.81667700       0.92192706
C       -5.12070997      -0.72369186       1.89809279       1.05291108      -1.06420682      -1.16329347
O       -4.70635159      -1.01934924       0.46704049      -1.08531989       1.20697292       1.34990752
O       -4.40272410       1.53402673       1.39962300       0.57242405      -0.86807149      -1.01187477
H       -1.25111694       1.56181626       1.23098111       0.36140881      -0.36255424       0.21983220
H       -1.06975292       1.79448736       2.99955683      -0.12218603      -0.28977273      -0.34568322
H       -3.21519437      -0.11431702       4.15154219      -0.36125242       0.61380857      -0.66073622
H       -2.91768062       1.59445870       3.65206140      -0.53850999      -0.37864895      -0.40212858
H       -5.23028182       0.92243309       3.16773121      -0.01251794       0.14397340      -0.13710242
H       -5.00865700      -1.61366147       2.51976338       0.72507675      -0.13460616       0.20917558
H       -6.19321701      -0.63072501       1.89055640      -0.71012938       0.65439168      -0.41776453
H       -4.26213697      -1.86504347       0.42091936       0.44159189      -0.56131638       0.28026597
H       -4.05464781       0.97714237       0.63729986      -0.47650754       0.81124286       0.62237278
34
Lattice="22.698 0.0 0.0 0.0 13.945 0.0 0.0 0.0 14.718" Properties=species:S:1:pos:R:3:forces:R:3 energy=-10974.272338964916 pbc="T T T"
C        5.13566100      -0.94341909      -2.79611272       0.14563317      -1.24389308      -0.10533866