      34
 i =        0, time =        0.000, E =      -403.2927106007
  C         0.0109380475       -0.0117919757        0.0136456206
  F         0.0219833644       -0.0020930031        0.0330891361
  F        -0.0063572586        0.0203021665       -0.0286288447
  F         0.0052097140       -0.0246755145       -0.0115779130
  O         0.0166567964        0.0069299674        0.0029591131
  C         0.0166770135        0.0142482247       -0.0027167571
  F        -0.0029777041       -0.0053891640       -0.0124930756
  F        -0.0029008728        0.0089564027       -0.0039271148
  C        -0.0138542422       -0.0244555350       -0.0193349037
  F         0.0055539174        0.0011801696        0.0058787481
  F         0.0072926767        0.0077783133        0.0036558712
  C        -0.0049415367       -0.0019790106        0.0288948537
  F         0.0127386297       -0.0031821336       -0.0261761965
  F         0.0126901249        0.0161144542       -0.0094682425
  O         0.0069179092       -0.0008611638       -0.0119782305
  C        -0.0128439049        0.0057204477        0.0380522016
  F        -0.0169425734        0.0033518634       -0.0033895470
  F        -0.0141352103       -0.0113896618        0.0190529868
  C        -0.0095247736        0.0190294013        0.0187096125
  O         0.0321016576       -0.0325905015       -0.0235685608
  C        -0.0322972411       -0.0102144401        0.0044256390
  C        -0.0209258010        0.0112458022        0.0244840583
  C        -0.0098046954        0.0389680490        0.0043279787
  O        -0.0156159979       -0.0337480921       -0.0323574239
  O         0.0318764271        0.0082762084       -0.0334745803
  H         0.0057326718       -0.0006562477        0.0021268608
  H         0.0049271263        0.0059188901        0.0002629266
  H         0.0050080156        0.0020678135        0.0022188081
  H         0.0045342712        0.0009226574        0.0025954258
  H         0.0012129335       -0.0052774669        0.0051112881
  H         0.0050219237       -0.0042371537       -0.0055988746
  H         0.0071504505       -0.0029954018        0.0049070403
  H         0.0078447294        0.0005561503        0.0248764961
  H        -0.0168569737       -0.0063771099       -0.0044345677
      34
 i =        1, time =        1.000, E =      -403.2941031678
  C         0.0089092808       -0.0094782259        0.0134225127
  F         0.0240544343       -0.0020694148        0.0320594552
  F        -0.0050662316        0.0167558732       -0.0287988352
  F         0.0047262108       -0.0251594772       -0.0099941594
  O         0.0138352822        0.0075701955        0.0028175276
  C         0.0121333089        0.0144950192       -0.0076982950
  F        -0.0010395750       -0.0062867485       -0.0114941853
  F        -0.0056499336        0.0081896868       -0.0026463445
  C        -0.0077241830       -0.0255508413       -0.0127965874
  F         0.0082253364        0.0011643758        0.0073201735
  F         0.0048450679        0.0087099903        0.0024047127
  C        -0.0066819417        0.0005234413        0.0198058247
  F         0.0135241617       -0.0032189692       -0.0211970750
  F         0.0148351004        0.0157208689       -0.0085490715
  O         0.0092273236       -0.0006375974       -0.0087491960
  C        -0.0211372766        0.0020645560        0.0370259450
  F        -0.0153761093        0.0068119746       -0.0046054795
  F        -0.0115365463       -0.0105288089        0.0196122409
  C        -0.0053372643        0.0181342573        0.0277636630
  O         0.0332610855       -0.0308021583       -0.0240687238
  C        -0.0393178898       -0.0090317587        0.0040000861
  C        -0.0158976873        0.0083083882        0.0229236993
  C        -0.0217896993        0.0381243196        0.0140623974
  O        -0.0147381414       -0.0301124277       -0.0106284049
  O         0.0333946687        0.0059828812       -0.0311196217
  H         0.0024978993       -0.0023586724        0.0007619188
  H         0.0057224876        0.0081753383       -0.0047492028
  H         0.0046576769        0.0021675105        0.0032822190
  H         0.0093516531        0.0021431318       -0.0025738357
  H         0.0032550118       -0.0030862282        0.0065576518
  H         0.0082806696       -0.0057942740       -0.0132782294
  H         0.0097520656       -0.0066898338        0.0030434833
  H         0.0042243930        0.0022478782        0.0036355770
  H        -0.0180391445       -0.0062582464       -0.0032581933
      34
 i =        2, time =        2.000, E =      -403.2946425287
  C         0.0065936638       -0.0066910141        0.0126027218
  F         0.0258433836       -0.0017787108        0.0306726495
  F        -0.0034967606        0.0130748760       -0.0276695052
  F         0.0042334631       -0.0239914591       -0.0098575329
  O         0.0109286050        0.0082193586        0.0025276877
  C         0.0071093751        0.0141851411       -0.0124753741
  F         0.0008144853       -0.0066634605       -0.0103815097
  F        -0.0099010075        0.0089218322       -0.0018539159
  C        -0.0012961653       -0.0258074756       -0.0055193758
  F         0.0108451237        0.0005360882        0.0090596232
  F         0.0016444803        0.0096213056        0.0006143876
  C        -0.0082285510        0.0029852332        0.0094937569
  F         0.0150198656       -0.0032593647       -0.0160133114
  F         0.0171432072        0.0149187153       -0.0076383728
  O         0.0104769500       -0.0004386157       -0.0047182926
  C        -0.0286504480       -0.0015138694        0.0344321038
  F        -0.0135467096        0.0096425311       -0.0049916898
  F        -0.0090370102       -0.0093229479        0.0203391954
  C        -0.0005264485        0.0162061273        0.0339236885
  O         0.0329978225       -0.0276271660       -0.0232271179
  C        -0.0431125152       -0.0064741359        0.0027432274
  C        -0.0097849980        0.0051993251        0.0199894518
  C        -0.0311410394        0.0337648308        0.0210922505
  O        -0.0139070207       -0.0277145874        0.0142590281
  O         0.0258485138        0.0025500179       -0.0268459527
  H        -0.0009985102       -0.0034429260       -0.0008629505
  H         0.0055307284        0.0098439727       -0.0075879290
  H         0.0034431732        0.0010360849        0.0034428524
  H         0.0130070841        0.0028839482       -0.0059072031
  H         0.0051675490       -0.0007244829        0.0075972605
  H         0.0098656498       -0.0074472481       -0.0166515297
  H         0.0103910169       -0.0075806897        0.0001322072
  H         0.0020581013        0.0051942490       -0.0204810500
  H        -0.0113014816       -0.0046641731       -0.0023257470
      34
 i =        3, time =        3.000, E =      -403.2952218854
  C         0.0039471828       -0.0034149340        0.0111290772
  F         0.0272199212       -0.0010530314        0.0288996437
  F        -0.0013455785        0.0095175649       -0.0243593225
  F         0.0042477632       -0.0218951327       -0.0117086560
  O         0.0077543126        0.0090371381        0.0020347935
  C         0.0019828201        0.0131894498       -0.0167293058
  F         0.0025195155       -0.0064235428       -0.0093415038
  F        -0.0153233241        0.0097432180       -0.0013126448
  C         0.0050994060       -0.0250619214        0.0021133183
  F         0.0128366680       -0.0009448015        0.0109925152
  F        -0.0030594451        0.0098848857       -0.0015203138
  C        -0.0098165029        0.0052567049       -0.0014902932
  F         0.0170700107       -0.0030028566       -0.0111764536
  F         0.0193917275        0.0136793042       -0.0067487910
  O         0.0107475678       -0.0006063280        0.0000219171
  C        -0.0348457145       -0.0047990425        0.0302160470
  F        -0.0114967541        0.0116540633       -0.0037912212
  F        -0.0069674667       -0.0078818793        0.0213030548
  C         0.0043907991        0.0136411524        0.0362642473
  O         0.0314421154       -0.0234859993       -0.0211269676
  C        -0.0430427159       -0.0026289063       -0.0002440036
  C        -0.0028500626        0.0026525961        0.0164386056
  C        -0.0370256354        0.0264570338        0.0244499948
  O        -0.0113036467       -0.0224335731        0.0264784432
  O         0.0113467522       -0.0010534632       -0.0210670631
  H        -0.0044770028       -0.0039831533       -0.0025601658
  H         0.0043002241        0.0106446403       -0.0075479236
  H         0.0015134855       -0.0010487947        0.0027915796
  H         0.0149289462        0.0029941211       -0.0065741794
  H         0.0067583969        0.0010102826        0.0077792485
  H         0.0095252319       -0.0090255049       -0.0151317454
  H         0.0089851266       -0.0055410353       -0.0034499015
  H         0.0016101540        0.0050284011       -0.0318770392
  H         0.0014792718       -0.0024452599       -0.0017849755
      34
 i =        4, time =        4.000, E =      -403.2963953525
  C         0.0010072219        0.0002735868        0.0090470691
  F         0.0278299734        0.0003209038        0.0265500157
  F         0.0015868372        0.0060591247       -0.0190859169
  F         0.0054477583       -0.0196797428       -0.0142966042
  O         0.0042225668        0.0100517605        0.0012850487
  C        -0.0029393722        0.0115734123       -0.0203241916
  F         0.0040736789       -0.0055436392       -0.0085454461
  F        -0.0135227141        0.0112777336       -0.0007476922
  C         0.0111479774       -0.0232583837        0.0096116814
  F         0.0136239047       -0.0032815566        0.0127865067
  F        -0.0085732595        0.0089938919       -0.0039183164
  C        -0.0113466696        0.0072018561       -0.0124382242
  F         0.0191669190       -0.0021510103       -0.0070019410
  F         0.0212808206        0.0120386918       -0.0059315983
  O         0.0100692734       -0.0016901203        0.0051768630
  C        -0.0392962710       -0.0076347875        0.0248349066
  F        -0.0092214057        0.0129617063       -0.0016160255
  F        -0.0064361983       -0.0063018929        0.0224845297
  C         0.0088314939        0.0108584575        0.0345320182
  O         0.0287533402       -0.0187162507       -0.0179094682
  C        -0.0391388210        0.0019242068       -0.0054547479
  C         0.0046348180        0.0012192473        0.0128514045
  C        -0.0392905611        0.0170086407        0.0234447014
  O        -0.0041972023       -0.0101091810        0.0171257077
  O        -0.0044497104       -0.0035535814       -0.0145711207
  H        -0.0075941888       -0.0041194387       -0.0041599575
  H         0.0021706292        0.0104273175       -0.0045596790
  H        -0.0008222343       -0.0035179610        0.0016849880
  H         0.0148622278        0.0024629199       -0.0043655310
  H         0.0078742342        0.0015805991        0.0068625046
  H         0.0072855922       -0.0103938902       -0.0088379568
  H         0.0057982902       -0.0010144608       -0.0072095780
  H         0.0004540685       -0.0019428345       -0.0221067839
  H         0.0148276432       -0.0008094629       -0.0014827908
      34
 i =        5, time =        5.000, E =      -403.2967015335
  C        -0.0021387041        0.0042877211        0.0063542622
  F         0.0270904377        0.0022876343        0.0235566552
  F         0.0054313542        0.0028691212       -0.0101292317
  F         0.0073606946       -0.0173033984       -0.0155639659
  O         0.0003697967        0.0111997783        0.0002876293
  C        -0.0074195836        0.0094039068       -0.0231249856
  F         0.0054645584       -0.0041958363       -0.0081190814
  F        -0.0087471258        0.0124358684       -0.0003586486
  C         0.0165555191       -0.0203839952        0.0165842194
  F         0.0130626684       -0.0063032571        0.0141097884
  F        -0.0141658002        0.0065849315       -0.0065179915
  C        -0.0127093388        0.0087191770       -0.0226689798
  F         0.0207426201       -0.0005768280       -0.0042151628
  F         0.0225165783        0.0100909766       -0.0052742497
  O         0.0085745290       -0.0038360954        0.0104507753
  C        -0.0417575325       -0.0098512673        0.0188042937
  F        -0.0069007872        0.0137539363        0.0000312555
  F        -0.0079420956       -0.0046949020        0.0237853979
  C         0.0121877054        0.0081503593        0.0291492969
  O         0.0251579600       -0.0135807868       -0.0137690466
  C        -0.0320186128        0.0063340555       -0.0130175004
  C         0.0121520378        0.0009592346        0.0097115890
  C        -0.0385303685        0.0067200497        0.0180839714
  O         0.0077778076        0.0070417071       -0.0040656067
  O        -0.0132942192       -0.0040689890       -0.0085127252
  H        -0.0100760224       -0.0040412774       -0.0055337244
  H        -0.0005664456        0.0092358889        0.0008059734
  H        -0.0031627853       -0.0056099113        0.0006911493
  H         0.0129286866        0.0014112329        0.0003614453
  H         0.0084201142        0.0008646427        0.0048640666
  H         0.0034984959       -0.0114182261        0.0011635422
  H         0.0015575187        0.0047215585       -0.0105187824
  H        -0.0031666896       -0.0129504656       -0.0014899446
  H         0.0207121230       -0.0007036340       -0.0008608136
      34
 i =        6, time =        6.000, E =      -403.2953607819
  C        -0.0053759601        0.0084735240        0.0031605446
  F         0.0246872915        0.0043931487        0.0199621809
  F         0.0098836996       -0.0013296180        0.0016687973
  F         0.0077479481       -0.0134529771       -0.0147149653
  O        -0.0036659030        0.0123482217       -0.0009702473
  C        -0.0111998124        0.0067962505       -0.0250427662
  F         0.0066100410       -0.0026707168       -0.0080823704
  F        -0.0044647721        0.0128189428       -0.0003286019
  C         0.0210675330       -0.0165187334        0.0226842222
  F         0.0113111442       -0.0094323391        0.0146941795
  F        -0.0173538382        0.0023957063       -0.0092929504
  C        -0.0138159191        0.0097263966       -0.0315511475
  F         0.0208935292        0.0015953767       -0.0020663486
  F         0.0228493006        0.0079756730       -0.0048919692
  O         0.0064685855       -0.0070065006        0.0155274453
  C        -0.0421550717       -0.0113474696        0.0125925137
  F        -0.0048023472        0.0141817955        0.0003858888
  F        -0.0123054502       -0.0031985180        0.0250117998
  C         0.0138642624        0.0055879263        0.0214268437
  O         0.0209411299       -0.0083062464       -0.0089914208
  C        -0.0227977192        0.0096529477       -0.0222517124
  C         0.0190447424        0.0014505361        0.0071331222
  C        -0.0363457997       -0.0024463657        0.0100563386
  O         0.0191106126        0.0227100335       -0.0224229559
  O        -0.0104929056       -0.0029911732       -0.0038554981
  H        -0.0117797127       -0.0039401378       -0.0065843158
  H        -0.0035000782        0.0073537665        0.0071616197
  H        -0.0051489953       -0.0066198355        0.0003777843
  H         0.0097054037        0.0001184371        0.0064944208
  H         0.0083917985       -0.0007517162        0.0021164103
  H        -0.0009999070       -0.0118739031        0.0122029363
  H        -0.0025446436        0.0095534540       -0.0126017761
  H        -0.0080776085       -0.0224508779        0.0156638699
  H         0.0147371974       -0.0018571630        0.0006399220
      34
 i =        7, time =        7.000, E =      -403.2936505349
  C        -0.0085851638        0.0125911327       -0.0003369830
  F         0.0209938771        0.0057699755        0.0161616057
  F         0.0135823062       -0.0081756927        0.0112764644
  F         0.0057833395       -0.0090970041       -0.0126602314
  O        -0.0076647753        0.0133725641       -0.0024897475
  C        -0.0141437736        0.0039002810       -0.0260376147
  F         0.0075114230       -0.0003395025       -0.0084606722
  F        -0.0010487548        0.0127717438       -0.0000310115
  C         0.0245004380       -0.0118893236        0.0276001985
  F         0.0090614922       -0.0122255105        0.0146484136
  F        -0.0179057696       -0.0031018145       -0.0121497960
  C        -0.0145845316        0.0101525143       -0.0385543902
  F         0.0190486769        0.0041037840       -0.0011816421
  F         0.0221102853        0.0058973326       -0.0049208487
  O         0.0040668846       -0.0109257532        0.0201338317
  C        -0.0404957594       -0.0120870292        0.0066478690
  F        -0.0032199545        0.0144235147       -0.0004521781
  F        -0.0187326144       -0.0018926536        0.0259260779
  C         0.0133062686        0.0029824006        0.0135514768
  O         0.0164257057       -0.0031220823       -0.0039612278
  C        -0.0129478217        0.0111185984       -0.0312317487
  C         0.0246258019        0.0020230740        0.0049040424
  C        -0.0349400520       -0.0085279039        0.0029975187
  O         0.0251461443        0.0329811157       -0.0308085220
  O         0.0002041884       -0.0018317771       -0.0003924531
  H        -0.0126201722       -0.0039484176       -0.0072392039
  H        -0.0061413992        0.0052929946        0.0123457904
  H        -0.0065717573       -0.0062051200        0.0010322227
  H         0.0062314428       -0.0009548354        0.0119786393
  H         0.0078726290       -0.0025727255       -0.0008563484
  H        -0.0049126740       -0.0113593357        0.0199526798
  H        -0.0052355955        0.0112347218       -0.0127456334
  H        -0.0120412645       -0.0275412240        0.0233690961
  H         0.0010528318       -0.0029987878        0.0028721273
      34
 i =        8, time =        8.000, E =      -403.2934382049
  C        -0.0116140024        0.0162972563       -0.0038578510
  F         0.0172025999        0.0055604835        0.0129721377
  F         0.0161986652       -0.0158912726        0.0177567917
  F         0.0022816621       -0.0041447015       -0.0108865104
  O        -0.0114112533        0.0142139436       -0.0041824862
  C        -0.0161553486        0.0009202820       -0.0261110498
  F         0.0081404812        0.0019012772       -0.0091660059
  F         0.0013254397        0.0112148075        0.0000704074
  C         0.0267340384       -0.0068299076        0.0310498246
  F         0.0071017735       -0.0144872433        0.0143627089
  F        -0.0171360420       -0.0092608597       -0.0149429195
  C        -0.0149296504        0.0099772706       -0.0432848306
  F         0.0153921011        0.0065031940        0.0002090091
  F         0.0202868142        0.0041339789       -0.0054529465
  O         0.0016393589       -0.0149530249        0.0240527628
  C        -0.0369084237       -0.0120776819        0.0013625268
  F        -0.0024730991        0.0145706945       -0.0019635987
  F        -0.0233097691       -0.0008721939        0.0259303569
  C         0.0101247567        0.0000455423        0.0078881708
  O         0.0119359218        0.0017091158        0.0008980151
  C        -0.0039285646        0.0104142054       -0.0371099097
  C         0.0282684921        0.0020793703        0.0026805664
  C        -0.0357174119       -0.0108170543        0.0007236731
  O         0.0255505105        0.0374499244       -0.0281561466
  O         0.0111563799       -0.0017967675        0.0029000954
  H        -0.0125607394       -0.0041197746       -0.0074502460
  H        -0.0080308303        0.0036109910        0.0141275391
  H        -0.0073896045       -0.0045442610        0.0024961898
  H         0.0036662262       -0.0012804753        0.0142732788
  H         0.0070020472       -0.0039031757       -0.0035175698
  H        -0.0071257974       -0.0094024815        0.0203812246
  H        -0.0058634307        0.0086658832       -0.0107045981
  H        -0.0136370780       -0.0276913978        0.0210077964
  H        -0.0123277525       -0.0032519160        0.0050626300
      34
 i =        9, time =        9.000, E =      -403.2952055791
  C        -0.0143473278        0.0192016254       -0.0070691923
  F         0.0145639949        0.0037427984        0.0109840487
  F         0.0179664500       -0.0235512238        0.0217720248
  F         0.0036780151       -0.0012008369       -0.0090508733
  O        -0.0147921727        0.0149354181       -0.0059231995
  C        -0.0172159092       -0.0019454110       -0.0252549269
  F         0.0084579940        0.0040073744       -0.0101423758
  F         0.0030362293        0.0107609762       -0.0000770468
  C         0.0276929455       -0.0017216778        0.0328111881
  F         0.0057242447       -0.0168573767        0.0141385133
  F        -0.0161093454       -0.0143979888       -0.0176194952
  C        -0.0147952688        0.0092601952       -0.0455126344
  F         0.0112100848        0.0084914926        0.0031865174
  F         0.0175717454        0.0029966255       -0.0064537835
  O        -0.0007111605       -0.0184059197        0.0271266754
  C        -0.0315463579       -0.0113600813       -0.0029976016
  F        -0.0029380251        0.0146737538       -0.0035986861
  F        -0.0237053309       -0.0001335291        0.0243555959
  C         0.0042668987       -0.0032998941        0.0056989686
  O         0.0077484347        0.0059040954        0.0052195750
  C         0.0034361555        0.0078435414       -0.0376350024
  C         0.0294867437        0.0012566038        0.0002021635
  C        -0.0380411895       -0.0103541857        0.0040825720
  O         0.0208125817        0.0366985272       -0.0148085048
  O         0.0170971881       -0.0027289934        0.0068095993
  H        -0.0116213315       -0.0044407820       -0.0072006815
  H        -0.0089204119        0.0026045989        0.0114758378
  H        -0.0076663846       -0.0022137778        0.0042561145
  H         0.0025894441       -0.0005492730        0.0117213687
  H         0.0059479766       -0.0042536069       -0.0054574944
  H        -0.0075700684       -0.0058619360        0.0129373386
  H        -0.0047875573        0.0026938321       -0.0069325265
  H        -0.0117121436       -0.0231529645        0.0090074247
  H        -0.0199175222       -0.0027118649        0.0064594010
      34
 i =       10, time =       10.000, E =      -403.2976451370
  C        -0.0165490147        0.0209045355       -0.0096596009
  F         0.0134308158        0.0010771212        0.0100636319
  F         0.0190404514       -0.0306635036        0.0234632028
  F         0.0181756345        0.0000539126       -0.0059987664
  O        -0.0176876172        0.0155835897       -0.0075842135
  C        -0.0173320713       -0.0044951477       -0.0235396935
  F         0.0084296658        0.0054411323       -0.0112557730
  F         0.0045745278        0.0092517090        0.0001195866
  C         0.0273619179        0.0030077036        0.0327089802
  F         0.0051430662       -0.0183283243        0.0143209720
  F        -0.0152915415       -0.0176734702       -0.0197988302
  C        -0.0141685605        0.0081078568       -0.0451275131
  F         0.0077993344        0.0100469563        0.0067105609
  F         0.0142961394        0.0026919846       -0.0077749581
  O        -0.0030336799       -0.0208925673        0.0292593687
  C        -0.0246381031       -0.0100021084       -0.0063139697
  F        -0.0052975203        0.0147358531       -0.0050252730
  F        -0.0185435627        0.0003161847        0.0224461934
  C        -0.0039148487       -0.0067772543        0.0063631809
  O         0.0040443046        0.0092030861        0.0087544534
  C         0.0093151754        0.0042995540       -0.0327300253
  C         0.0280684703       -0.0005340958       -0.0026519135
  C        -0.0397677472       -0.0090112100        0.0101412116
  O         0.0134778602        0.0318912358        0.0075717016
  O         0.0160874516       -0.0041808737        0.0114314968
  H        -0.0098836318       -0.0048404507       -0.0065100324
  H        -0.0088650545        0.0021562490        0.0053168435
  H        -0.0075057811        0.0000936552        0.0056949030
  H         0.0025963585        0.0010863206        0.0048252942
  H         0.0048752703       -0.0034103935       -0.0064395515
  H        -0.0071524851       -0.0012769183        0.0011725140
  H        -0.0030213690       -0.0044582880       -0.0023633599
  H        -0.0055916844       -0.0150398046       -0.0108075755
  H        -0.0197396053       -0.0019763869        0.0066704611
      34
 i =       11, time =       11.000, E =      -403.2992137744
  C        -0.0179499313        0.0210426537       -0.0113787241
  F         0.0131824443       -0.0013515348        0.0094598383
  F         0.0196571432       -0.0362946343        0.0230019920
  F         0.0169043433        0.0003905851       -0.0011614661
  O        -0.0200987818        0.0161715508       -0.0090545835
  C        -0.0165444520       -0.0065867800       -0.0210499156
  F         0.0080444879        0.0071274665       -0.0123975296
  F         0.0063265324        0.0108114686        0.0000545661
  C         0.0257787971        0.0069606826        0.0306347925
  F         0.0052920382       -0.0196921540        0.0150182228
  F        -0.0154865686       -0.0190408364       -0.0204108150
  C        -0.0130723138        0.0066775877       -0.0421369597
  F         0.0139420302        0.0111296492        0.0095463924
  F         0.0107949713        0.0032467156       -0.0092493109
  O        -0.0053927398       -0.0223473920        0.0304235298
  C        -0.0164966985       -0.0080924788       -0.0085707668
  F        -0.0095540973        0.0147637382       -0.0060241940
  F        -0.0112760553        0.0004678902        0.0209040831
  C        -0.0137266625       -0.0099210979        0.0079706593
  O         0.0008992845        0.0114152540        0.0113903179
  C         0.0144352693        0.0009407279       -0.0244446410
  C         0.0241834871       -0.0031014565       -0.0058155421
  C        -0.0388413553       -0.0083339192        0.0148502124
  O         0.0061403977        0.0262340959        0.0313231203
  O         0.0082025511       -0.0053804213        0.0167170285
  H        -0.0074885838       -0.0051894412       -0.0054464316
  H        -0.0081338454        0.0018922427       -0.0021092470
  H        -0.0070084346        0.0018148467        0.0063347142
  H         0.0027287656        0.0031002271       -0.0040058640
  H         0.0039082069       -0.0014648961       -0.0064426781
  H        -0.0068307518        0.0033953554       -0.0101670161
  H        -0.0015613583       -0.0104732046        0.0020423857
  H         0.0027837445       -0.0068549065       -0.0307699681
  H        -0.0120369060       -0.0017081929        0.0056409944
      34
 i =       12, time =       12.000, E =      -403.3006986978
  C        -0.0185161995        0.0194223313       -0.0120460937
  F         0.0129487929       -0.0025608981        0.0081228887
  F         0.0198114425       -0.0397135555        0.0205369260
  F         0.0140348309        0.0023349506        0.0039089244
  O        -0.0221209056        0.0165696822       -0.0103510027
  C        -0.0149185029       -0.0080718460       -0.0179010529
  F         0.0073093676        0.0081417420       -0.0134692447
  F         0.0088344276        0.0114180881        0.0003019661
  C         0.0230097962        0.0098439942        0.0265845590
  F         0.0060292037       -0.0202718852        0.0163330809
  F        -0.0153601175       -0.0191371758       -0.0183527226
  C        -0.0114804152        0.0051351035       -0.0366886670
  F         0.0263053124        0.0117890260        0.0103727053
  F         0.0073326865        0.0045441755       -0.0107555788
  O        -0.0077854561       -0.0228834619        0.0306544047
  C        -0.0076094400       -0.0057479829       -0.0098431197
  F        -0.0155861816        0.0147538725       -0.0065566402
  F        -0.0051927533        0.0001003353        0.0228412869
  C        -0.0242521275       -0.0123754076        0.0085799727
  O        -0.0017057436        0.0124458138        0.0131307302
  C         0.0193655902       -0.0012744970       -0.0154967641
  C         0.0184070713       -0.0059863750       -0.0090286547
  C        -0.0342701243       -0.0091165614        0.0157129256
  O         0.0041118072        0.0240505153        0.0418297396
  O        -0.0043103780       -0.0058344588        0.0221978022
  H        -0.0046260805       -0.0053028966       -0.0041276084
  H        -0.0070601947        0.0014586329       -0.0085550028
  H        -0.0062519225        0.0026323760        0.0059564361
  H         0.0022297756        0.0049200826       -0.0119155222
  H         0.0030750302        0.0012065405       -0.0056614338
  H        -0.0070604587        0.0073129643       -0.0178588912
  H        -0.0010152373       -0.0137902667        0.0055746887
  H         0.0073743737       -0.0032262632       -0.0365924403
  H         0.0007493465       -0.0024503435        0.0036786996
      34
 i =       13, time =       13.000, E =      -403.3033852413
  C        -0.0181998841        0.0160913200       -0.0116155063
  F         0.0138180778       -0.0025272553        0.0052938875
  F         0.0193530753       -0.0406825876        0.0170272337
  F         0.0117844332        0.0061847391        0.0065321008