#     Step Nr.          Time[fs]        Kin.[a.u.]          Temp[K]            Pot.[a.u.]        Cons Qty[a.u.]        UsedTime[s]
         0            0.000000         0.046737207       298.150000000      -403.292710601      -403.245973394         0.000000000
         1            1.000000         0.048104479       306.872218886      -403.294103168      -403.245998689        22.106398663
         2            2.000000         0.048707870       310.721425713      -403.294642529      -403.245934658         3.152332316
         3            3.000000         0.049336817       314.733656368      -403.295221885      -403.245885068         3.192751803
         4            4.000000         0.050390443       321.455036545      -403.296395352      -403.246004910         3.152867286
         5            5.000000         0.050635146       323.016070697      -403.296701533      -403.246066387         3.087868010
         6            6.000000         0.049378997       315.002732028      -403.295360782      -403.245981785         3.190522667
         7            7.000000         0.047791252       304.874056065      -403.293650535      -403.245859283         3.132490187
         8            8.000000         0.047605705       303.690397852      -403.293438205      -403.245832500         3.218216200
         9            9.000000         0.049289249       314.430206175      -403.295205579      -403.245916330         3.197534342
        10           10.000000         0.051597782       329.156998951      -403.297645137      -403.246047355         3.109224425
        11           11.000000         0.053236029       339.607844915      -403.299213774      -403.245977745         3.177423899
        12           12.000000         0.054823794       349.736650146      -403.300698698      -403.245874904         3.125888503
        13           13.000000         0.057446773       366.469387081      -403.303385241      -403.245938468         3.144137640
        14           14.000000         0.060493476       385.905171757      -403.306499683      -403.246006208         3.114339093
        15           15.000000         0.062994024       401.856881460      -403.309024980      -403.246030956         3.111242888
        16           16.000000         0.064647855       412.407144337      -403.310681848      -403.246033993         3.163103363
        17           17.000000         0.065630623       418.676500906      -403.311622316      -403.245991694         3.152528500
        18           18.000000         0.066505844       424.259790370      -403.312483590      -403.245977745         3.131577346
        19           19.000000         0.067621230       431.375156252      -403.313609131      -403.245987901         3.120133735
        20           20.000000         0.068376247       436.191619851      -403.314382915      -403.246006668         3.125457685
        21           21.000000         0.068658562       437.992592217      -403.314601497      -403.245942934         3.127320359
        22           22.000000         0.068926102       439.699301778      -403.314935686      -403.246009584         3.139094698
        23           23.000000         0.068720033       438.384732500      -403.314687522      -403.245967489         3.162030760
        24           24.000000         0.068169990       434.875852277      -403.314090658      -403.245920668         3.157448662
        25           25.000000         0.068231835       435.270376574      -403.314113476      -403.245881641         3.111768870
        26           26.000000         0.069307923       442.135053322      -403.315243744      -403.245935821         3.145257274
        27           27.000000         0.070749769       451.332996329      -403.316751616      -403.246001847         3.102755361
        28           28.000000         0.071107114       453.612606173      -403.317181342      -403.246074227         3.094094027
        29           29.000000         0.069918480       446.029967704      -403.315844529      -403.245926049         3.152633538
        30           30.000000         0.068916077       439.635349622      -403.314764531      -403.245848455         3.133276638
        31           31.000000         0.068946292       439.828103421      -403.314943825      -403.245997533         3.162929812
        32           32.000000         0.068354978       436.055938558      -403.314416093      -403.246061116         3.149515074
        33           33.000000         0.066190920       422.250797248      -403.312172691      -403.245981771         3.163070793
        34           34.000000         0.063446568       404.743793433      -403.309319128      -403.245872560         3.122748396
        35           35.000000         0.061634530       393.184285105      -403.307482102      -403.245847572         3.164979367
        36           36.000000         0.061217339       390.522899322      -403.307149677      -403.245932338         3.166592227
        37           37.000000         0.061159749       390.155518894      -403.307165529      -403.246005780         3.119670223
        38           38.000000         0.060514923       386.041991847      -403.306462577      -403.245947653         3.152311207
        39           39.000000         0.059850850       381.805680239      -403.305752556      -403.245901706         3.126669353
        40           40.000000         0.059767642       381.274870732      -403.305709584      -403.245941942         3.146437991
        41           41.000000         0.059985446       382.664303978      -403.305914837      -403.245929391         3.124572860
        42           42.000000         0.060446651       385.606461081      -403.306380965      -403.245934314         3.189139332
        43           43.000000         0.061264254       390.822185843      -403.307196425      -403.245932172         3.090579290
        44           44.000000         0.062472731       398.531408332      -403.308417107      -403.245944375         3.139090074
        45           45.000000         0.063809556       407.059392584      -403.309812423      -403.246002868         3.155192754
        46           46.000000         0.064560050       411.847011993      -403.310582906      -403.246022856         3.104460885
        47           47.000000         0.064661135       412.491863068      -403.310578637      -403.245917501         3.154575412
        48           48.000000         0.065221467       416.066377945      -403.311147213      -403.245925747         3.133294432
        49           49.000000         0.065975139       420.874266515      -403.312066721      -403.246091582         3.162526584
        50           50.000000         0.065133998       415.508387346      -403.311213445      -403.246079447         3.090144264
        51           51.000000         0.062821584       400.756838380      -403.308728196      -403.245906612         3.144432287
        52           52.000000         0.061099953       389.774061089      -403.306933331      -403.245833378         3.143172269
        53           53.000000         0.060963690       388.904805548      -403.306886633      -403.245922943         3.166399939
        54           54.000000         0.061280027       390.922808958      -403.307327496      -403.246047469         3.190985100
        55           55.000000         0.060380452       385.184163225      -403.306429037      -403.246048585         3.089396049
        56           56.000000         0.058292886       371.866979813      -403.304175236      -403.245882350         3.140808569
        57           57.000000         0.056937566       363.221008963      -403.302784746      -403.245847179         3.125409345
        58           58.000000         0.056948930       363.293503416      -403.302935618      -403.245986687         3.160523234
        59           59.000000         0.056922791       363.126752714      -403.302964090      -403.246041299         3.124759507
        60           60.000000         0.055922264       356.744105456      -403.301931876      -403.246009612         3.157734118
        61           61.000000         0.054414213       347.123819244      -403.300335582      -403.245921369         3.133228783
        62           62.000000         0.053601768       341.940999446      -403.299478242      -403.245876474         3.157948334
        63           63.000000         0.053932134       344.048500104      -403.299893757      -403.245961623         3.129386144
        64           64.000000         0.054281259       346.275662509      -403.300315372      -403.246034114         3.105048056
        65           65.000000         0.053843708       343.484403444      -403.299789833      -403.245946125         3.139715989
        66           66.000000         0.053470677       341.104729912      -403.299403895      -403.245933219         3.118967330
        67           67.000000         0.053362814       340.416644676      -403.299359427      -403.245996613         3.140283242
        68           68.000000         0.052848368       337.134846578      -403.298808232      -403.245959864         3.090563327
        69           69.000000         0.052219362       333.122237924      -403.298140169      -403.245920807         3.122989680
        70           70.000000         0.052039887       331.977310058      -403.297983127      -403.245943240         3.165374473
        71           71.000000         0.052075393       332.203814023      -403.298087515      -403.246012123         3.082888642
        72           72.000000         0.051442470       328.166217408      -403.297499449      -403.246056979         3.138194860
        73           73.000000         0.049725687       317.214371211      -403.295685531      -403.245959844         3.130660466
        74           74.000000         0.048247048       307.781710546      -403.294065416      -403.245818368         3.129112595
        75           75.000000         0.048531890       309.598798166      -403.294442026      -403.245910136         3.115109312
        76           76.000000         0.049522671       315.919275735      -403.295549661      -403.246026989         3.084379062
        77           77.000000         0.049727141       317.223644191      -403.295700244      -403.245973104         3.123303176
        78           78.000000         0.049736220       317.281563727      -403.295610123      -403.245873902         3.120486314
        79           79.000000         0.050815230       324.164873311      -403.296678431      -403.245863201         3.123502025
        80           80.000000         0.052985141       338.007359245      -403.298963102      -403.245977961         3.128182118
        81           81.000000         0.054604949       348.340577793      -403.300718478      -403.246113528         3.063025140
        82           82.000000         0.054128593       345.301768206      -403.300161916      -403.246033322         3.113606616
        83           83.000000         0.052670569       336.000612730      -403.298523252      -403.245852683         3.149459641
        84           84.000000         0.052190684       332.939289139      -403.298111156      -403.245920473         3.126206446
        85           85.000000         0.052159641       332.741256660      -403.298155825      -403.245996184         3.109956292
        86           86.000000         0.051557291       328.898694573      -403.297517135      -403.245959845         3.089592261
        87           87.000000         0.050576572       322.642410175      -403.296506342      -403.245929769         3.152583784
        88           88.000000         0.049841771       317.954902432      -403.295733098      -403.245891327         3.121436260
        89           89.000000         0.049752401       317.384786626      -403.295665522      -403.245913121         3.139142732
        90           90.000000         0.049983226       318.857286459      -403.295937863      -403.245954637         3.141901086
        91           91.000000         0.050304123       320.904379557      -403.296196542      -403.245892419         3.117862342
        92           92.000000         0.051426413       328.063786814      -403.297340091      -403.245913679         3.090369597
        93           93.000000         0.052851772       337.156557100      -403.298893913      -403.246042142         3.101581332
        94           94.000000         0.053170983       339.192897967      -403.299150621      -403.245979638         3.142016917
        95           95.000000         0.053106126       338.779153772      -403.298961148      -403.245855023         3.120888502
        96           96.000000         0.054133479       345.332932746      -403.299994312      -403.245860834         3.118907668
        97           97.000000         0.056268007       358.949701679      -403.302213433      -403.245945426         3.115547059
        98           98.000000         0.058336470       372.145018479      -403.304356575      -403.246020104         3.118570771
        99           99.000000         0.059308033       378.342891685      -403.305303593      -403.245995560         3.114696942
       100          100.000000         0.059664805       380.618847114      -403.305543444      -403.245878638         3.103080200
       101          101.000000         0.060955315       388.851377626      -403.306842126      -403.245886810         3.127695199
       102          102.000000         0.062814837       400.713801075      -403.308849932      -403.246035095         3.096628326
       103          103.000000         0.063566905       405.511457158      -403.309579981      -403.246013076         3.138688502
       104          104.000000         0.063099764       402.531426427      -403.309038965      -403.245939201         3.136599919
       105          105.000000         0.062638208       399.587032193      -403.308477363      -403.245839155         3.120171743
       106          106.000000         0.063224106       403.324641537      -403.309114694      -403.245890588         3.119453695
       107          107.000000         0.064452900       411.163468788      -403.310447166      -403.245994267         3.119853079
       108          108.000000         0.064978360       414.515532157      -403.310972984      -403.245994623         3.084122839
       109          109.000000         0.064746120       413.034004355      -403.310616091      -403.245869972         3.112124967
       110          110.000000         0.064967323       414.445124672      -403.310865519      -403.245898196         3.155153244
       111          111.000000         0.065496428       417.820431685      -403.311468828      -403.245972401         3.119884299
       112          112.000000         0.065599828       418.480054325      -403.311530477      -403.245930648         3.177066386
       113          113.000000         0.065617016       418.589702182      -403.311524151      -403.245907135         3.131198267
       114          114.000000         0.065979651       420.903051041      -403.311891902      -403.245912251         3.164619022
       115          115.000000         0.066804713       426.166359627      -403.312682711      -403.245877997         3.176456930
       116          116.000000         0.067584930       431.143584747      -403.313558090      -403.245973160         3.123954011
       117          117.000000         0.067460261       430.348285836      -403.313402703      -403.245942442         3.147455780
       118          118.000000         0.066904236       426.801242770      -403.312736268      -403.245832032         3.124714295
       119          119.000000         0.066961359       427.165647613      -403.312874249      -403.245912890         3.119471423
       120          120.000000         0.066703579       425.521196353      -403.312721279      -403.246017700         3.086354923
       121          121.000000         0.065034228       414.871927568      -403.310958682      -403.245924455         3.141138861
       122          122.000000         0.062984539       401.796377276      -403.308812238      -403.245827699         3.120798658
       123          123.000000         0.062145357       396.442992788      -403.307859494      -403.245714137         3.144817897
       124          124.000000         0.062725301       400.142620664      -403.308553159      -403.245827859         3.128958371
       125          125.000000         0.063416027       404.548962826      -403.309339120      -403.245923093         3.124992006
       126          126.000000         0.063013624       401.981916973      -403.308887288      -403.245873664         3.154515856
       127          127.000000         0.062241245       397.054688276      -403.307971771      -403.245730526         3.118707318
       128          128.000000         0.062612643       399.423945678      -403.308396885      -403.245784242         3.121959532
       129          129.000000         0.063618410       405.840021055      -403.309486154      -403.245867744         3.130984745
       130          130.000000         0.063976624       408.125171824      -403.309849572      -403.245872947         3.150242274
       131          131.000000         0.063745232       406.649055580      -403.309491476      -403.245746244         3.155513773
       132          132.000000         0.063558511       405.457908738      -403.309304000      -403.245745489         3.127529458
       133          133.000000         0.063567779       405.517028866      -403.309334352      -403.245766573         3.140171932
       134          134.000000         0.063250516       403.493116905      -403.309075978      -403.245825462         3.102140158
       135          135.000000         0.062076915       396.006385844      -403.307849198      -403.245772282         3.108705769
       136          136.000000         0.060837454       388.099509689      -403.306521409      -403.245683955         3.127889742
       137          137.000000         0.060450660       385.632039890      -403.306236783      -403.245786122         3.125986489
       138          138.000000         0.060056284       383.116200974      -403.305858234      -403.245801950         3.121972878
       139          139.000000         0.059388713       378.857574443      -403.305063044      -403.245674331         3.122905016
       140          140.000000         0.059790240       381.419027057      -403.305408123      -403.245617884         3.140646245
       141          141.000000         0.061977470       395.371992759      -403.307673062      -403.245695592         3.135882317
       142          142.000000         0.065095615       415.263530895      -403.310903775      -403.245808160         3.121118530
       143          143.000000         0.067690660       431.818070263      -403.313535708      -403.245845048         3.075834091
       144          144.000000         0.069099979       440.808518195      -403.314874159      -403.245774179         3.135517672
       145          145.000000         0.070092320       447.138942978      -403.315794607      -403.245702287         3.124234071
       146          146.000000         0.071417310       455.591435880      -403.317225474      -403.245808164         3.116843804
       147          147.000000         0.071916923       458.778605813      -403.317819898      -403.245902975         3.101447879
       148          148.000000         0.070445515       449.392076614      -403.316296863      -403.245851347         3.118991210
       149          149.000000         0.067560011       430.984617586      -403.313322088      -403.245762077         3.125874775
       150          150.000000         0.064521840       411.603260451      -403.310220056      -403.245698216         3.120865307
       151          151.000000         0.062214804       396.886019339      -403.307916798      -403.245701993         3.170863082
       152          152.000000         0.060561384       386.338378373      -403.306318411      -403.245757027         3.199925084
       153          153.000000         0.058970113       376.187202828      -403.304689609      -403.245719496         3.071919054
       154          154.000000         0.057792802       368.676804455      -403.303418110      -403.245625307         3.105603815
       155          155.000000         0.057945687       369.652099044      -403.303623854      -403.245678167         3.124931843
       156          156.000000         0.058960802       376.127808767      -403.304732985      -403.245772183         3.098940615
       157          157.000000         0.059784862       381.384721396      -403.305561238      -403.245776376         3.143964904
       158          158.000000         0.060219887       384.159868893      -403.305985946      -403.245766059         3.114281598
       159          159.000000         0.060538689       386.193598005      -403.306293060      -403.245754372         3.114917546
       160          160.000000         0.060827609       388.036705612      -403.306612626      -403.245785016         3.121621474
       161          161.000000         0.060570325       386.395412617      -403.306404733      -403.245834408         3.101970740
       162          162.000000         0.059192757       377.607516684      -403.304972246      -403.245779489         3.111159391
       163          163.000000         0.057495979       366.783285397      -403.303145952      -403.245649973         3.124169459
       164          164.000000         0.056890111       362.918277112      -403.302595797      -403.245705686         3.135946260
       165          165.000000         0.056850693       362.666819590      -403.302642966      -403.245792273         3.108960515
       166          166.000000         0.056269759       358.960873887      -403.302032010      -403.245762251         3.127829202
       167          167.000000         0.055432231       353.618042545      -403.301145694      -403.245713464         3.122409414
       168          168.000000         0.055101648       351.509159532      -403.300806149      -403.245704501         3.119109067
       169          169.000000         0.055434654       353.633503705      -403.301195729      -403.245761075         3.122664317
       170          170.000000         0.055615098       354.784604932      -403.301448619      -403.245833521         3.094299181
       171          171.000000         0.054849330       349.899550013      -403.300610601      -403.245761271         3.214504083
       172          172.000000         0.054051024       344.806932372      -403.299705841      -403.245654817         3.136095598
       173          173.000000         0.054345326       346.684365035      -403.300092862      -403.245747536         3.151390417
       174          174.000000         0.054817002       349.693323350      -403.300620015      -403.245803013         3.122660293
       175          175.000000         0.054716743       349.053743752      -403.300453201      -403.245736457         3.124938476
       176          176.000000         0.054762227       349.343900317      -403.300432957      -403.245670729         3.130065442
       177          177.000000         0.055846199       356.258864528      -403.301490813      -403.245644614         3.126746262
       178          178.000000         0.058018017       370.113511835      -403.303748178      -403.245730161         3.158865629
       179          179.000000         0.060326662       384.841016521      -403.306116488      -403.245789826         3.072027697
       180          180.000000         0.062063858       395.923089910      -403.307806136      -403.245742278         3.125741741
       181          181.000000         0.063920093       407.764542281      -403.309627841      -403.245707748         3.131203415
       182          182.000000         0.066012612       421.113320298      -403.311848520      -403.245835908         3.125406654
       183          183.000000         0.066987566       427.332831728      -403.312789234      -403.245801668         3.119772400
       184          184.000000         0.066705892       425.535947857      -403.312452726      -403.245746834         3.142023659
       185          185.000000         0.066218534       422.426953528      -403.311914880      -403.245696346         3.128903473
       186          186.000000         0.066307454       422.994198383      -403.311991804      -403.245684351         3.159994991
       187          187.000000         0.067041995       427.680045510      -403.312782623      -403.245740628         3.131058346
       188          188.000000         0.067679794       431.748747371      -403.313478156      -403.245798362         3.127771466
       189          189.000000         0.067971988       433.612739281      -403.313643218      -403.245671230         3.124777322
       190          190.000000         0.068893726       439.492770839      -403.314564821      -403.245671094         3.132619401
       191          191.000000         0.070450917       449.426534478      -403.316230274      -403.245779358         3.160299461
       192          192.000000         0.071327007       455.015365274      -403.317131940      -403.245804932         3.152125878
       193          193.000000         0.071100446       453.570067712      -403.316888890      -403.245788444         3.175408344
       194          194.000000         0.070130607       447.383188280      -403.315902861      -403.245772254         3.147453234
       195          195.000000         0.068758137       438.627810425      -403.314502336      -403.245744199         3.087165148
       196          196.000000         0.067094457       428.014717625      -403.312874086      -403.245779629         3.138053366
       197          197.000000         0.064833883       413.593868696      -403.310617146      -403.245783263         3.063676591
       198          198.000000         0.062130935       396.350991678      -403.307819711      -403.245688776         3.151798866
       199          199.000000         0.059964887       382.533153418      -403.305655363      -403.245690476         3.128932048
       200          200.000000         0.058373297       372.379944309      -403.304143863      -403.245770566         3.124217367
       201          201.000000         0.056574150       360.902672893      -403.302310723      -403.245736573         3.122467524
       202          202.000000         0.054852624       349.920568128      -403.300522826      -403.245670202         3.141675482
       203          203.000000         0.054070248       344.929563701      -403.299716724      -403.245646476         3.079231664
       204          204.000000         0.054425042       347.192897672      -403.300119686      -403.245694644         3.133316708
       205          205.000000         0.055172203       351.959253952      -403.300957166      -403.245784962         3.106622023
       206          206.000000         0.055139242       351.748981338      -403.300945113      -403.245805871         3.109246997
       207          207.000000         0.054205676       345.793497546      -403.299887976      -403.245682301         3.125859289
       208          208.000000         0.053899672       343.841412527      -403.299502088      -403.245602416         3.120574726
       209          209.000000         0.054837500       349.824088238      -403.300540762      -403.245703262         3.115732922
       210          210.000000         0.055997435       357.223639965      -403.301706862      -403.245709427         3.152406224
       211          211.000000         0.057149979       364.576051360      -403.302809106      -403.245659127         3.123124548
       212          212.000000         0.058933886       375.956105781      -403.304558310      -403.245624423         3.185250858
       213          213.000000         0.061512118       392.403380514      -403.307209269      -403.245697151         3.085558089
       214          214.000000         0.064057608       408.641787910      -403.309840705      -403.245783097         3.106336072
       215          215.000000         0.065299711       416.565517015      -403.311106758      -403.245807048         3.125940131
       216          216.000000         0.065012384       414.732576253      -403.310706886      -403.245694503         3.121549458
       217          217.000000         0.064482144       411.350025211      -403.310125811      -403.245643667         3.119207715
       218          218.000000         0.063788653       406.926050936      -403.309550894      -403.245762241         3.124607178
       219          219.000000         0.061809027       394.297448886      -403.307514562      -403.245705535         3.150874869
       220          220.000000         0.059180178       377.527272474      -403.304775243      -403.245595065         3.153492473
       221          221.000000         0.057443028       366.445493454      -403.303010092      -403.245567064         3.138303107
       222          222.000000         0.057122578       364.401251592      -403.302730472      -403.245607894         3.132805065
       223          223.000000         0.057546262       367.104055884      -403.303230882      -403.245684620         3.093006141
       224          224.000000         0.057786295       368.635292208      -403.303449020      -403.245662725         3.152520726
       225          225.000000         0.058259331       371.652922743      -403.303836206      -403.245576875         3.144426856
       226          226.000000         0.059969820       382.564624491      -403.305588512      -403.245618691         3.145330694
       227          227.000000         0.061782138       394.125916010      -403.307537058      -403.245754920         3.129134516