      34
 i =        0, time =        0.000, E =      -403.2927106007
  C         6.0660000000       -0.2810000000       -0.2320000000
  F         6.6790000000       -0.2830000000       -1.4630000000
  F         6.4420000000       -1.3930000000        0.4950000000
  F         6.4090000000        0.8310000000        0.5180000000
  O         4.6850000000       -0.3610000000       -0.4170000000
  C         4.2010000000        0.7110000000       -1.1590000000
  F         4.4560000000        1.9200000000       -0.5410000000
  F         4.7870000000        0.7240000000       -2.3880000000
  C         2.7060000000        0.5320000000       -1.3070000000
  F         2.1580000000        1.5490000000       -2.0250000000
  F         2.5090000000       -0.6630000000       -1.9960000000
  C         2.0470000000        0.3540000000        0.0470000000
  F         2.2890000000        1.4740000000        0.8240000000
  F         2.5620000000       -0.7410000000        0.7130000000
  O         0.6780000000        0.1320000000       -0.0780000000
  C         0.1680000000       -0.0170000000        1.1890000000
  F         0.7330000000       -1.0800000000        1.8750000000
  F         0.5340000000        1.1180000000        1.9250000000
  C        -1.3380000000       -0.0670000000        1.2580000000
  O        -1.8880000000       -1.0980000000        0.5470000000
  C        -3.2640000000       -1.1790000000        0.5870000000
  C        -3.9430000000        0.0490000000        0.0430000000
  C        -5.4560000000       -0.1320000000        0.1040000000
  O        -5.9050000000       -1.1870000000       -0.6620000000
  O        -3.6040000000        0.2850000000       -1.2800000000
  H        -1.7290000000        0.9190000000        0.9310000000
  H        -1.5980000000       -0.1870000000        2.3300000000
  H        -3.5750000000       -2.0250000000       -0.0520000000
  H        -3.6600000000       -1.3880000000        1.5990000000
  H        -3.7410000000        0.9670000000        0.6310000000
  H        -5.8080000000       -0.2570000000        1.1500000000
  H        -5.9440000000        0.8080000000       -0.2470000000
  H        -6.0190000000       -0.9560000000       -1.6240000000
  H        -2.6350000000        0.4970000000       -1.2980000000
      34
 i =        1, time =        1.000, E =      -403.2941031678
  C         6.0731497182       -0.2856579227       -0.2333930083
  F         6.6811348783       -0.2846368272       -1.4647811662
  F         6.4403396370       -1.3952879184        0.4905666553
  F         6.4161715395        0.8252877050        0.5199751369
  O         4.6924751149       -0.3639481914       -0.4163114734
  C         4.2041019570        0.7079871172       -1.1532299484
  F         4.4558554296        1.9173009773       -0.5385268517
  F         4.7813797361        0.7197980370       -2.3912604808
  C         2.7003754699        0.5357551438       -1.3120644009
  F         2.1572089655        1.5562211445       -2.0277501893
  F         2.5074215203       -0.6570373966       -1.9988574729
  C         2.0501244175        0.3523752041        0.0528605880
  F         2.2890767336        1.4751821415        0.8188458591
  F         2.5594586107       -0.7417584275        0.7157129722
  O         0.6774552276        0.1389525598       -0.0784679312
  C         0.1765249169       -0.0142370464        1.1907335951
  F         0.7323318487       -1.0853740468        1.8785370818
  F         0.5324953398        1.1192280999        1.9261438254
  C        -1.3356980340       -0.0665920806        1.2570176559
  O        -1.8902583218       -1.0950712931        0.5481060706
  C        -3.2621023892       -1.1798430312        0.5961168659
  C        -3.9487227601        0.0492257444        0.0411298439
  C        -5.4496252236       -0.1311678872        0.1010687681
  O        -5.9163770631       -1.1886515688       -0.6623436224
  O        -3.6078535035        0.2881806445       -1.2834933024
  H        -1.7041430439        0.9349174991        0.9521725153
  H        -1.5884285494       -0.2092425263        2.3377493576
  H        -3.5681962339       -2.0232712080       -0.0509304408
  H        -3.6851652587       -1.3911099825        1.6092973188
  H        -3.7607430453        0.9665756931        0.6262393861
  H        -5.8081402620       -0.2376477050        1.1632526829
  H        -5.9529744204        0.8169013952       -0.2297955685
  H        -5.9847244916       -0.9378009630       -1.5988613863
  H        -2.6336757412        0.4808681193       -1.3105715371
      34
 i =        2, time =        2.000, E =      -403.2946425287
  C         6.0806674681       -0.2907073795       -0.2342315489
  F         6.6838979435       -0.2863276976       -1.4657250927
  F         6.4385469683       -1.3971382534        0.4853812227
  F         6.4234665051        0.8189183647        0.5216892740
  O         4.7003792671       -0.3666616282       -0.4155355742
  C         4.2077051264        0.7055730062       -1.1477779041
  F         4.4556837105        1.9144377749       -0.5363538767
  F         4.7756119230        0.7158099495       -2.3945900714
  C         2.6944318630        0.5384548132       -1.3176574135
  F         2.1566327375        1.5634726969       -2.0303092106
  F         2.5059695706       -0.6508473298       -2.0016521461
  C         2.0529728121        0.3507720309        0.0595393307
  F         2.2895066537        1.4762802189        0.8131381519
  F         2.5573046434       -0.7421063011        0.7182026835
  O         0.6771965981        0.1458853475       -0.0792071783
  C         0.1841766784       -0.0113888085        1.1939966872
  F         0.7312621469       -1.0905701973        1.8819538905
  F         0.5306894002        1.1201812376        1.9277998288
  C        -1.3336165439       -0.0654350569        1.2571821952
  O        -1.8914852047       -1.0930977730        0.5484657608
  C        -3.2618289529       -1.1810591534        0.6053989706
  C        -3.9551022344        0.0497946984        0.0402066381
  C        -5.4441505534       -0.1287609047        0.0987184368
  O        -5.9282111617       -1.1912369356       -0.6630168357
  O        -3.6106714255        0.2915468205       -1.2879516362
  H        -1.6780565239        0.9496739673        0.9737200769
  H        -1.5760402663       -0.2274608311        2.3431609717
  H        -3.5590997768       -2.0204754824       -0.0482452449
  H        -3.7057272677       -1.3931650317        1.6183276949
  H        -3.7788838463        0.9646322238        0.6247067052
  H        -5.8042044544       -0.2211475784        1.1699693014
  H        -5.9571484925        0.8225097922       -0.2110930153
  H        -5.9483695715       -0.9184954324       -1.5719331992
  H        -2.6412310556        0.4616556847       -1.3247468846
      34
 i =        3, time =        3.000, E =      -403.2952218854
  C         6.0884575943       -0.2960332341       -0.2345494862
  F         6.6873359144       -0.2880650194       -1.4658679961
  F         6.4366629808       -1.3986471351        0.4794731948
  F         6.4308720285        0.8119224821        0.5231459795
  O         4.7086223196       -0.3691201795       -0.4146812904
  C         4.2116019754        0.7037448662       -1.1428412025
  F         4.4555332618        1.9114005546       -0.5344520171
  F         4.7695855429        0.7120548577       -2.3979680774
  C         2.6884347132        0.5400884069       -1.3234784247
  F         2.1563397323        1.5707382493       -2.0326316379
  F         2.5045605669       -0.6444060005       -2.0044307745
  C         2.0554812952        0.3492921741        0.0666102490
  F         2.2903288209        1.4772931773        0.8070122534
  F         2.5555983747       -0.7420645690        0.7204929171
  O         0.6772628628        0.1528045336       -0.0800927414
  C         0.1906449245       -0.0086031067        1.1986821281
  F         0.7298386697       -1.0955145310        1.8852403401
  F         0.5286474570        1.1208909045        1.9299869948
  C        -1.3315568008       -0.0636085777        1.2587480812
  O        -1.8916888124       -1.0919809819        0.5481051692
  C        -3.2633364427       -1.1825427143        0.6147943947
  C        -3.9618859152        0.0505784301        0.0401091724
  C        -5.4399622820       -0.1249591378        0.0972394010
  O        -5.9404765223       -1.1946817423       -0.6632478711
  O        -3.6126877752        0.2949920735       -1.2932424732
  H        -1.6524615098        0.9627356926        0.9948428605
  H        -1.5609295422       -0.2408335471        2.3448375102
  H        -3.5483084552       -2.0171697554       -0.0438653423
  H        -3.7198866808       -1.3938004888        1.6244503144
  H        -3.7944809774        0.9623321358        0.6269136933
  H        -5.7954123876       -0.2083132789        1.1684893852
  H        -5.9562076992        0.8243866771       -0.1923253847
  H        -5.9110015735       -0.8966330890       -1.5550865868
  H        -2.6543494015        0.4401473615       -1.3400670558
      34
 i =        4, time =        4.000, E =      -403.2963953525
  C         6.0964107738       -0.3015001554       -0.2344076947
  F         6.6914847396       -0.2898298414       -1.4652561788
  F         6.4347438533       -1.3999074635        0.4729290177
  F         6.4383884832        0.8043548033        0.5242969108
  O         4.7171058363       -0.3712984857       -0.4137639069
  C         4.2155807324        0.7024615665       -1.1385955683
  F         4.4554486109        1.9081955821       -0.5327941129
  F         4.7631589907        0.7085542121       -2.4013803635
  C         2.6826482136        0.5406867229       -1.3292121374
  F         2.1563819595        1.5779791281       -2.0346669932
  F         2.5030716651       -0.6377065252       -2.0072491062
  C         2.0575842704        0.3480294654        0.0736196052
  F         2.2915967752        1.4782277154        0.8005944794
  F         2.5543985253       -0.7416655989        0.7226069044
  O         0.6776624137        0.1597049172       -0.0809776249
  C         0.1956737361       -0.0060156476        1.2046157573
  F         0.7281149523       -1.1001545163        1.8884277811
  F         0.5264235569        1.1213947343        1.9327304949
  C        -1.3293156790       -0.0612185989        1.2618119994
  O        -1.8909173880       -1.0915925006        0.5470894223
  C        -3.2666219751       -1.1841348722        0.6241797393
  C        -3.9687873287        0.0514717374        0.0406907657
  C        -5.4373034949       -0.1200644627        0.0967703649
  O        -5.9530924133       -1.1988222227       -0.6626577998
  O        -3.6143522578        0.2984046582       -1.2991866080
  H        -1.6290702516        0.9738367539        1.0147054302
  H        -1.5437020795       -0.2489665545        2.3427986652
  H        -3.5367721367       -2.0143802861       -0.0381113149
  H        -3.7266974821       -1.3929621221        1.6273368655
  H        -3.8067513610        0.9605293483        0.6329499320
  H        -5.7819316289       -0.1999216862        1.1595610316
  H        -5.9508440750        0.8235360475       -0.1752559305
  H        -5.8728409946       -0.8722955698       -1.5539311008
  H        -2.6667395920        0.4174353857       -1.3562658618
      34
 i =        5, time =        5.000, E =      -403.2967015335
  C         6.1044055604       -0.3069557752       -0.2338921798
  F         6.6963603508       -0.2915862829       -1.4639510020
  F         6.4328661664       -1.4010095565        0.4658864077
  F         6.4460472074        0.7962731836        0.5250744832
  O         4.7257202964       -0.3731650829       -0.4128066735
  C         4.2194380674        0.7016563505       -1.1351895019
  F         4.4554703449        1.9048458363       -0.5313593750
  F         4.7563792898        0.7053480871       -2.4048121757
  C         2.6773222236        0.5403242631       -1.3345488031
  F         2.1567799781        1.5851343083       -2.0363684260
  F         2.5013588708       -0.6307721724       -2.0101697656
  C         2.0592185283        0.3470642567        0.0801151533
  F         2.2933652779        1.4791060794        0.7939938482
  F         2.5537544293       -0.7409522357        0.7245659867
  O         0.6783742167        0.1665528895       -0.0817019719
  C         0.1990792662       -0.0037435723        1.2115752866
  F         0.7261504158       -1.1044560037        1.8915730192
  F         0.5240315740        1.1217339888        1.9360611834
  C        -1.3267097389       -0.0583800703        1.2663023937
  O        -1.8892543116       -1.0917844174        0.5455182959
  C        -3.2715242849       -1.1856475435        0.6333397548
  C        -3.9754972834        0.0524154104        0.0418032350
  C        -5.4362677535       -0.1144671813        0.0972698012
  O        -5.9658384612       -1.2032761927       -0.6615366537
  O        -3.6161547275        0.3017070450       -1.3055825988
  H        -1.6094171505        0.9829100662        1.0325203060
  H        -1.5254061481       -0.2519668281        2.3385153677
  H        -3.5256405541       -2.0133224949       -0.0315278704
  H        -3.7261925132       -1.3909114100        1.6280745313
  H        -3.8151457383        0.9595045936        0.6423641641
  H        -5.7648646165       -0.1966463731        1.1462822896
  H        -5.9426263053        0.8221860605       -0.1617353129
  H        -5.8344569054       -0.8489143897       -1.5636574393
  H        -2.6718310360        0.3943249606       -1.3731945555
      34
 i =        6, time =        6.000, E =      -403.2953607819
  C         6.1123119998       -0.3122342744       -0.2331141779
  F         6.7019434348       -0.2932829824       -1.4620306379
  F         6.4311303205       -1.4020367217        0.4585792706
  F         6.4538981577        0.7877396818        0.5254455991
  O         4.7343462241       -0.3746843707       -0.4118405207
  C         4.2229889084        0.7012395985       -1.1327387008
  F         4.4556347872        1.9013865152       -0.5301366687
  F         4.7493711559        0.7024667275       -2.4082533541
  C         2.6726801220        0.5391197651       -1.3392003947
  F         2.1575191311        1.5921248775       -2.0377013785
  F         2.4992761334       -0.6236658526       -2.0132606438
  C         2.0603277788        0.3464592267        0.0856742732
  F         2.2956754787        1.4799693794        0.7872831370
  F         2.5536983587       -0.7399753444        0.7263873308
  O         0.6793519190        0.1732819031       -0.0821022363
  C         0.2007598431       -0.0018784410        1.2193115986
  F         0.7240056637       -1.1083983040        1.8947190736
  F         0.5214321815        1.1219506348        1.9400130329
  C        -1.3236003394       -0.0552048603        1.2719969102
  O        -1.8868110772       -1.0923974796        0.5435201860
  C        -3.2777492451       -1.1868985625        0.6419620331
  C        -3.9817052521        0.0533987082        0.0433168784
  C        -5.4368236550       -0.1085923027        0.0985162645
  O        -5.9783433163       -1.2075117967       -0.6605415837
  O        -3.6183694562        0.3048832509       -1.3122425724
  H        -1.5947238620        0.9899941035        1.0476112660
  H        -1.5073890434       -0.2504208356        2.3346288018
  H        -3.5160658182       -2.0150261216       -0.0246042152
  H        -3.7193235385       -1.3881660337        1.6289901146
  H        -3.8193954058        0.9589054498        0.6541726802
  H        -5.7460755075       -0.1989915579        1.1335762887
  H        -5.9336418639        0.8231602094       -0.1533924518
  H        -5.7976315847       -0.8319079358       -1.5741171869
  H        -2.6667271623        0.3708681792       -1.3905469753
      34
 i =        7, time =        7.000, E =      -403.2936505349
  C         6.1199963647       -0.3171627426       -0.2322056177
  F         6.7081712328       -0.2948649537       -1.4595889570
  F         6.4296525896       -1.4030986103        0.4513157145
  F         6.4619514473        0.7788548525        0.5254324304
  O         4.7428584707       -0.3758207354       -0.4109044556
  C         4.2260770987        0.7011035914       -1.1313223861
  F         4.4559718521        1.8978574478       -0.5291250352
  F         4.7422464234        0.6999201375       -2.4117031140
  C         2.6689082949        0.5372328981       -1.3429149284
  F         2.1585536772        1.5988691191       -2.0386505893
  F         2.4967401966       -0.6164969685       -2.0165942095
  C         2.0608663104        0.3462559824        0.0899300532
  F         2.2985313187        1.4808743430        0.7805184627
  F         2.5542390026       -0.7387901666        0.7280809201
  O         0.6805302147        0.1797936423       -0.0820209888
  C         0.2006990447       -0.0004820599        1.2275680922
  F         0.7217354973       -1.1119702435        1.8978752055
  F         0.5185114295        1.1220837509        1.9446180711
  C        -1.3199182240       -0.0517988197        1.2785765438
  O        -1.8837184503       -1.0932681217        0.5412432488
  C        -3.2849159515       -1.1877508300        0.6496651200
  C        -3.9871265054        0.0544419258        0.0451251824
  C        -5.4388809578       -0.1028184805        0.1001781430
  O        -5.9902555439       -1.2110431538       -0.6602418581
  O        -3.6209095738        0.3079666993       -1.3190221065
  H        -1.5858290092        0.9951386507        1.0594611681
  H        -1.4910948142       -0.2452550313        2.3342674656
  H        -3.5090256194       -2.0199882906       -0.0174945998
  H        -3.7076771843       -1.3853623580        1.6331025061
  H        -3.8195143016        0.9579362820        0.6670229763
  H        -5.7277785918       -0.2071815426        1.1268770507
  H        -5.9259099958        0.8288369424       -0.1512526782
  H        -5.7647823792       -0.8259526829       -1.5768665645
  H        -2.6543690632        0.3464972295       -1.4075844005
      34
 i =        8, time =        8.000, E =      -403.2934382049
  C         6.1273260869       -0.3215710862       -0.2313109780
  F         6.7149472907       -0.2962962409       -1.4567252122
  F         6.4285295637       -1.4043740088        0.4443466457
  F         6.4701557702        0.7697324529        0.5250886370
  O         4.7511330297       -0.3765424118       -0.4100455985
  C         4.2285810268        0.7011287003       -1.1309816539
  F         4.4565050795        1.8943195142       -0.5283343542
  F         4.7350943024        0.6977070844       -2.4151536838
  C         2.6661485512        0.5348548975       -1.3454893313
  F         2.1598248661        1.6052940887       -2.0392172535
  F         2.4937366467       -0.6094090889       -2.0202450698
  C         2.0608023726        0.3464721262        0.0925931980
  F         2.3018846192        1.4818864779        0.7737229296
  F         2.5553570616       -0.7374509787        0.7296460003
  O         0.6818346261        0.1859665698       -0.0813153833
  C         0.1989654155        0.0004150205        1.2360992011
  F         0.7193812410       -1.1151655098        1.9010195288
  F         0.5151014710        1.1221674399        1.9499001746
  C        -1.3156864426       -0.0482695798        1.2857159725
  O        -1.8801164560       -1.0942355808        0.5388434724
  C        -3.2926175168       -1.1881438015        0.6560780610
  C        -3.9915304966        0.0555687142        0.0471360665
  C        -5.4423815919       -0.0973969357        0.1019638454
  O        -6.0013879800       -1.2135517539       -0.6608975166
  O        -3.6234433595        0.3109933437       -1.3258138108
  H        -1.5831462992        0.9983396322        1.0677476506
  H        -1.4778236221       -0.2374838079        2.3399832107
  H        -3.5052202968       -2.0280048625       -0.0098768840
  H        -3.6929634699       -1.3830286898        1.6431112528
  H        -3.8157579812        0.9557007179        0.6794517442
  H        -5.7118998866       -0.2209630369        1.1299993028
  H        -5.9207552927        0.8400438452       -0.1553868043
  H        -5.7378603554       -0.8335542985       -1.5681127582
  H        -2.6414927189        0.3206501591       -1.4232080522
      34
 i =        9, time =        9.000, E =      -403.2952055791
  C         6.1341760487       -0.3253062099       -0.2305757013
  F         6.7221725982       -0.2975823148       -1.4535226971
  F         6.4278295695       -1.4060644115        0.4378412995
  F         6.4784196792        0.7605018135        0.5244605399
  O         4.7590537213       -0.3768233084       -0.4093164419
  C         4.2304175968        0.7011918248       -1.1317195376
  F         4.4572508974        1.8908312329       -0.5277830454
  F         4.7279767956        0.6957869085       -2.4186024149
  C         2.6644931585        0.5321947617       -1.3467811033
  F         2.1612815195        1.6113407208       -2.0394088324
  F         2.4902855853       -0.6025630587       -2.0242861678
  C         2.0601217089        0.3471004190        0.0934682986
  F         2.3056398877        1.4830684451        0.7669328547
  F         2.5570049153       -0.7360038310        0.7310686756
  O         0.6831898745        0.1916757982       -0.0798638925
  C         0.1957071437        0.0008131865        1.2446865944
  F         0.7169623992       -1.1179802591        1.9041125722
  F         0.5110827728        1.1222283514        1.9558594551
  C        -1.3110364198       -0.0447384585        1.2931812521
  O        -1.8761443242       -1.0951500395        0.5364715438
  C        -3.3004813663       -1.1881065748        0.6609580365
  C        -3.9947667506        0.0567813989        0.0492576815
  C        -5.4473576692       -0.0924222304        0.1037794419
  O        -6.0117280850       -1.2148990174       -0.6624263080
  O        -3.6256311816        0.3139642695       -1.3325155820
  H        -1.5866464769        0.9995126995        1.0723668303
  H        -1.4685055191       -0.2279351134        2.3526530835
  H        -3.5050524267       -2.0382582975       -0.0010304459
  H        -3.6764450956       -1.3813253216        1.6601458660
  H        -3.8085549791        0.9515438579        0.6901490266
  H        -5.6995287777       -0.2393728008        1.1431539915
  H        -5.9184867996        0.8555164350       -0.1647901526
  H        -5.7176510353       -0.8547867041       -1.5490180921
  H        -2.6346845771        0.2932023683       -1.4363396792
      34
 i =       10, time =       10.000, E =      -403.2976451370
  C         6.1404333396       -0.3282481376       -0.2301324445
  F         6.7297782477       -0.2987706447       -1.4500333311
  F         6.4275987732       -1.4083698596        0.4319045346
  F         6.4867796404        0.7512398140        0.5235960773
  O         4.7665157020       -0.3766410519       -0.4087709660
  C         4.2315429985        0.7011745868       -1.1335006719
  F         4.4582175977        1.8874476050       -0.5274966069
  F         4.7209385806        0.6941477579       -2.4220531581
  C         2.6639817279        0.5294635054       -1.3467174848
  F         2.1628876628        1.6169471187       -2.0392311809
  F         2.4864138247       -0.5960930353       -2.0287874028
  C         2.0588298705        0.3481112393        0.0924633272
  F         2.3096879101        1.4844721695        0.7602259965
  F         2.5591116590       -0.7344784257        0.7323228089
  O         0.6845230697        0.1968142520       -0.0775711931
  C         0.1911457300        0.0007420812        1.2531501605
  F         0.7144668302       -1.1204118001        1.9071116351
  F         0.5064450046        1.1222857757        1.9624547875
  C        -1.3062101365       -0.0413436519        1.3008819492
  O        -1.8719319104       -1.0958814100        0.5342614762
  C        -3.3082032724       -1.1877453408        0.6642833554
  C        -3.9967849427        0.0580459924        0.0513876477
  C        -5.4539051821       -0.0878752440        0.1057636844
  O        -6.0214227838       -1.2151082456       -0.6644143168
  O        -3.6272888133        0.3168505683       -1.3390061849
  H        -1.5958671288        0.9984998400        1.0734415528
  H        -1.4635783920       -0.2171043333        2.3709718130
  H        -3.5086582513       -2.0496014407        0.0099110184
  H        -3.6586520954       -1.3798923271        1.6829501958
  H        -3.7984241501        0.9452932061        0.6981599165
  H        -5.6908839529       -0.2606680390        1.1626769446
  H        -5.9185749297        0.8723150343       -0.1776059618
  H        -5.7032068907       -0.8874159052       -1.5254896190
  H        -2.6376806193        0.2644196914       -1.4462917361
      34
 i =       11, time =       11.000, E =      -403.2992137744
  C         6.1460070107       -0.3303265241       -0.2300882142
  F         6.7377346460       -0.2999308454       -1.4462811512
  F         6.4278652225       -1.4114760920        0.4265805164
  F         6.4956142623        0.7419792224        0.5225749555
  O         4.7734291829       -0.3759755424       -0.4084606794
  C         4.2319524332        0.7009716597       -1.1362542025
  F         4.4594044405        1.8842060736       -0.5275041156
  F         4.7140198304        0.6927502178       -2.4255007782
  C         2.6646005851        0.5268564938       -1.3453026978
  F         2.1646281184        1.6220748684       -2.0386795339
  F         2.4821427221       -0.5900845584       -2.0338056887
  C         2.0569527459        0.3494569854        0.0895941926
  F         2.3139396139        1.4861382724        0.7536943861
  F         2.5615917496       -0.7328827187        0.7333738974
  O         0.6857621892        0.2013048193       -0.0743711495
  C         0.1855665460        0.0002578009        1.2613529040
  F         0.7118329152       -1.1224585110        1.9099794619
  F         0.5013229671        1.1223514572        1.9696363072
  C        -1.3015455709       -0.0382288055        1.3088455016
  O        -1.8675940813       -1.0963273893        0.5323228875
  C        -3.3155403799       -1.1872064975        0.6662566365
  C        -3.9976436601        0.0592885230        0.0534080665
  C        -5.4620954527       -0.0837004998        0.1081668482
  O        -6.0306995290       -1.2143285144       -0.6661675242
  O        -3.6284475669        0.3196072166       -1.3451422927
  H        -1.6099528912        0.9951043211        1.0713117824
  H        -1.4630149917       -0.2052121631        2.3919077009
  H        -3.5159587151       -2.0608984831        0.0236557369
  H        -3.6395810660       -1.3779246030        1.7081297242
  H        -3.7858935222        0.9373638251        0.7030010072
  H        -5.6857598612       -0.2825918264        1.1827770551
  H        -5.9201502959        0.8869190898       -0.1915851094
  H        -5.6915151920       -0.9274482869       -1.5072810575
  H        -2.6503932680        0.2346641596       -1.4529603310
      34
 i =       12, time =       12.000, E =      -403.3006986978
  C         6.1508391918       -0.3315356640       -0.2305140252
  F         6.7460353067       -0.3011263417       -1.4422819255
  F         6.4286450224       -1.4155301668        0.4218572004
  F         6.5048903449        0.7327288310        0.5215235018
  O         4.7797193929       -0.3748085468       -0.4084311790
  C         4.2316784366        0.7004966406       -1.1398772798
  F         4.4608013670        1.8811506775       -0.5278353884
  F         4.7072662990        0.6916350215       -2.4289469734
  C         2.6662843333        0.5245370195       -1.3426224245
  F         2.1665067767        1.6266883531       -2.0377356828
  F         2.4774671844       -0.5845733372       -2.0393570075
  C         2.0545356199        0.3510785746        0.0849844311
  F         2.3185554169        1.4880950286        0.7474120818
  F         2.5643537532       -0.7312022230        0.7341834382
  O         0.6868340778        0.2051023854       -0.0702276605
  C         0.1793059033       -0.0005607699        1.2692015995
  F         0.7089494930       -1.1241196637        1.9126899655
  F         0.4959064529        1.1224293578        1.9773637416
  C        -1.2974480372       -0.0355237877        1.3171383123
  O        -1.8632283649       -1.0964193771        0.5307375170
  C        -3.3222811838       -1.1866287938        0.6672201389
  C        -3.9975033869        0.0604029362        0.0551882524
  C        -5.4718902128       -0.0798700197        0.1111834564
  O        -6.0397858581       -1.2127352538       -0.6669493897
  O        -3.6293519564        0.3221970159       -1.3507599990
  H        -1.6277248277        0.9891543561        1.0665010652
  H        -1.4664553886       -0.1923885570        2.4118053349
  H        -3.5267090048       -2.0713021869        0.0405186497
  H        -3.6191668314       -1.3744308259        1.7313374097
  H        -3.7714391219        0.9287133648        0.7046707594
  H        -5.6839981329       -0.3028442870        1.1978725623
  H        -5.9224942237        0.8963678239       -0.2045589147
  H        -5.6784532253       -0.9708549219       -1.5042186789
  H        -2.6690309531        0.2040677883       -1.4568522077
      34
 i =       13, time =       13.000, E =      -403.3033852413
  C         6.1549064911       -0.3319424909       -0.2314374458
  F         6.7546741281       -0.3023887164       -1.4380705687
  F         6.4299422026       -1.4206213699        0.4176702107
  F         6.5145329502        0.7235394174        0.5205741305