34
Lattice="22.698 0.0 0.0 0.0 13.945 0.0 0.0 0.0 14.718" Properties=species:S:1:pos:R:3:forces:R:3 energy=-10974.153718355285 pbc="T T T"
C        6.06600000      -0.28100000      -0.23200000       0.56245702      -0.60636777       0.70168602
F        6.67900000      -0.28300000      -1.46300000       1.13043005      -0.10762655       1.70151179
F        6.44200000      -1.39300000       0.49500000      -0.32690338       1.04397938      -1.47215438
F        6.40900000       0.83100000       0.51800000       0.26789426      -1.26886597      -0.59536022
O        4.68500000      -0.36100000      -0.41700000       0.85652691       0.35635325       0.15216371
C        4.20100000       0.71100000      -1.15900000       0.85756651       0.73267317      -0.13970127
F        4.45600000       1.92000000      -0.54100000      -0.15311970      -0.27712195      -0.64241978
F        4.78700000       0.72400000      -2.38800000      -0.14916888       0.46055674      -0.20194036
C        2.70600000       0.53200000      -1.30700000      -0.71241378      -1.25755417      -0.99424072
F        2.15800000       1.54900000      -2.02500000       0.28559392       0.06068676       0.30229738
F        2.50900000      -0.66300000      -1.99600000       0.37500451       0.39997695       0.18799246
C        2.04700000       0.35400000       0.04700000      -0.25410403      -0.10176482       1.48583312
F        2.28900000       1.47400000       0.82400000       0.65504668      -0.16363189      -1.34603414
F        2.56200000      -0.74100000       0.71300000       0.65255246       0.82863855      -0.48687660
O        0.67800000       0.13200000      -0.07800000       0.35573319      -0.04428282      -0.61594538
C        0.16800000      -0.01700000       1.18900000      -0.66046014       0.29415725       1.95672288
F        0.73300000      -1.08000000       1.87500000      -0.87122215       0.17235975      -0.17429751
F        0.53400000       1.11800000       1.92500000      -0.72686174      -0.58567996       0.97974397
C       -1.33800000      -0.06700000       1.25800000      -0.48978355       0.97853116       0.96208696
O       -1.88800000      -1.09800000       0.54700000       1.65073360      -1.67587097      -1.21194412
C       -3.26400000      -1.17900000       0.58700000      -1.66079091      -0.52524763       0.22757551
C       -3.94300000       0.04900000       0.04300000      -1.07604795       0.57828240       1.25902090
C       -5.45600000      -0.13200000       0.10400000      -0.50417771       2.00381765       0.22255361
O       -5.90500000      -1.18700000      -0.66200000      -0.80300690      -1.73539667      -1.66388564
O       -3.60400000       0.28500000      -1.28000000       1.63915179       0.42557975      -1.72133213
H       -1.72900000       0.91900000       0.93100000       0.29478584      -0.03374561       0.10936758
H       -1.59800000      -0.18700000       2.33000000       0.25336302       0.30436157       0.01352023
H       -3.57500000      -2.02500000      -0.05200000       0.25752252       0.10633125       0.11409570
H       -3.66000000      -1.38800000       1.59900000       0.23316160       0.04744495       0.13346216
H       -3.74100000       0.96700000       0.63100000       0.06237155      -0.27137826       0.26283300
H       -5.80800000      -0.25700000       1.15000000       0.25823770      -0.21788320      -0.28790571
H       -5.94400000       0.80800000      -0.24700000       0.36769095      -0.15402975       0.25233016
H       -6.01900000      -0.95600000      -1.62400000       0.40339220       0.02859840       1.27920086
H       -2.63500000       0.49700000      -1.29800000      -0.86682044      -0.32792418      -0.22803464
34
Lattice="22.698 0.0 0.0 0.0 13.945 0.0 0.0 0.0 14.718" Properties=species:S:1:pos:R:3:forces:R:3 energy=-10974.191612033794 pbc="T T T"
C        6.07314972      -0.28565792      -0.23339301       0.45813364      -0.48738997       0.69021335
F        6.68113488      -0.28463683      -1.46478117       1.23692874      -0.10641359       1.64856347
F        6.44033964      -1.39528792       0.49056666      -0.26051610       0.86162164      -1.48089565
F        6.41617154       0.82528771       0.51997514       0.24303153      -1.29375233      -0.51392034
O        4.69247511      -0.36394819      -0.41631147       0.71143881       0.38927510       0.14488309
C        4.20410196       0.70798712      -1.15322995       0.62391983       0.74536386      -0.39586224
F        4.45585543       1.91730098      -0.53852685      -0.05345710      -0.32327761      -0.59105477
F        4.78137974       0.71979804      -2.39126048      -0.29053127       0.42113063      -0.13608051
C        2.70037547       0.53575514      -1.31206440      -0.39719346      -1.31387709      -0.65802698
F        2.15720897       1.55622114      -2.02775019       0.42296380       0.05987461       0.37641846
F        2.50742152      -0.65703740      -1.99885747       0.24914341       0.44788571       0.12365530
C        2.05012442       0.35237520       0.05286059      -0.34359926       0.02691643       1.01845645
F        2.28907673       1.47518214       0.81884586       0.69544036      -0.16552605      -1.08999742
F        2.55945861      -0.74175843       0.71571297       0.76285153       0.80839958      -0.43961093
O        0.67745523       0.13895256      -0.07846793       0.47448806      -0.03278658      -0.44990175
C        0.17652492      -0.01423705       1.19073360      -1.08692246       0.10616374       1.90395064
F        0.73233185      -1.08537405       1.87853708      -0.79067133       0.35028582      -0.23682328
F        0.53249534       1.11922810       1.92614383      -0.59323306      -0.54141312       1.00850197
C       -1.33569803      -0.06659208       1.25701766      -0.27445316       0.93250100       1.42766495
O       -1.89025832      -1.09507129       0.54810607       1.71035378      -1.58391066      -1.23766354
C       -3.26210239      -1.17984303       0.59611687      -2.02180718      -0.46443171       0.20569270
C       -3.94872276       0.04922574       0.04112984      -0.81749195       0.42723450       1.17878401
C       -5.44962522      -0.13116789       0.10106877      -1.12047139       1.96043133       0.72311755
O       -5.91637706      -1.18865157      -0.66234362      -0.75786570      -1.54844329      -0.54653455
O       -3.60785350       0.28818064      -1.28349330       1.71722291       0.30765212      -1.60023529
H       -1.70414304       0.93491750       0.95217252       0.12844715      -0.12128781       0.03917944
H       -1.58842855      -0.20924253       2.33774936       0.29426214       0.42039280      -0.24421383
H       -3.56819623      -2.02327121      -0.05093044       0.23950738       0.11145787       0.16877849
H       -3.68516526      -1.39110998       1.60929732       0.48088134       0.11020427      -0.13235195
H       -3.76074305       0.96657569       0.62623939       0.16737944      -0.15870023       0.33720801
H       -5.80814026      -0.23764770       1.16325268       0.42580915      -0.29795355      -0.68279401
H       -5.95297442       0.81690140      -0.22979557       0.50147138      -0.34400509       0.15650220
H       -5.98472449      -0.93780096      -1.59886139       0.21722702       0.11559054       0.18694889
H       -2.63367574       0.48086812      -1.31057154      -0.92761011      -0.32181197      -0.16754304
34
Lattice="22.698 0.0 0.0 0.0 13.945 0.0 0.0 0.0 14.718" Properties=species:S:1:pos:R:3:forces:R:3 energy=-10974.206288794292 pbc="T T T"
C        6.08066747      -0.29070738      -0.23423155       0.33905982      -0.34406578       0.64805801
F        6.68389794      -0.28632770      -1.46572509       1.32892022      -0.09146499       1.57725105
F        6.43854697      -1.39713825       0.48538122      -0.17981066       0.67233716      -1.42282316
F        6.42346651       0.81891836       0.52168927       0.21769343      -1.23369043      -0.50689472
O        4.70037927      -0.36666163      -0.41553557       0.56197146       0.42265641       0.12997893
C        4.20770513       0.70557301      -1.14777790       0.36557877       0.72942928      -0.64150953
F        4.45568371       1.91443777      -0.53635388       0.04188252      -0.34264892      -0.53383869
F        4.77561192       0.71580995      -2.39459007      -0.50913028       0.45877906      -0.09533219
C        2.69443186       0.53845481      -1.31765741      -0.06665150      -1.32707375      -0.28381771
F        2.15663274       1.56347270      -2.03030921       0.55767868       0.02756676       0.46586456
F        2.50596957      -0.65084733      -2.00165215       0.08456258       0.49474743       0.03159308
C        2.05297281       0.35077203       0.05953933      -0.42312910       0.15350686       0.48818861
F        2.28950665       1.47628022       0.81313815       0.77235254      -0.16760327      -0.82343758
F        2.55730464      -0.74210630       0.71820268       0.88153916       0.76715118      -0.39278092
O        0.67719660       0.14588535      -0.07920718       0.53874643      -0.02255453      -0.24262436
C        0.18417668      -0.01138881       1.19399669      -1.47326527      -0.07784629       1.77056996
F        0.73126215      -1.09057020       1.88195389      -0.69659982       0.49583888      -0.25668301
F        0.53068940       1.12018124       1.92779983      -0.46470175      -0.47940526       1.04588348
C       -1.33361654      -0.06543506       1.25718220      -0.02707107       0.83335257       1.74442620
O       -1.89148520      -1.09309777       0.54846576       1.69681626      -1.42064599      -1.19438642
C       -3.26182895      -1.18105915       0.60539897      -2.21693467      -0.33291345       0.14106242
C       -3.95510223       0.04979470       0.04020664      -0.50316483       0.26736005       1.02789894
C       -5.44415055      -0.12876090       0.09871844      -1.60133663       1.73625741       1.08460713
O       -5.92821116      -1.19123694      -0.66301684      -0.71512776      -1.42514138       0.73322871
O       -3.61067143       0.29154682      -1.28795164       1.32918402       0.13112719      -1.38047439
H       -1.67805652       0.94967397       0.97372008      -0.05134546      -0.17704237      -0.04437470
H       -1.57604027      -0.22746083       2.34316097       0.28440149       0.50619743      -0.39018700
H       -3.55909978      -2.02047548      -0.04824524       0.17705508       0.05327763       0.17703859
H       -3.70572727      -1.39316503       1.61832769       0.66885116       0.14829858      -0.30376060
H       -3.77888385       0.96463222       0.62470671       0.26572605      -0.03725441       0.39066684
H       -5.80420445      -0.22114758       1.16996930       0.50731211      -0.38295289      -0.85625608
H       -5.95714849       0.82250979      -0.21109302       0.53432757      -0.38981474       0.00679837
H       -5.94836957      -0.91849543      -1.57193320       0.10583182       0.26709902      -1.05317794
H       -2.64123106       0.46165568      -1.32474688      -0.58114555      -0.23984142      -0.11959472
34
Lattice="22.698 0.0 0.0 0.0 13.945 0.0 0.0 0.0 14.718" Properties=species:S:1:pos:R:3:forces:R:3 energy=-10974.222053874182 pbc="T T T"
C        6.08845759      -0.29603323      -0.23454949       0.20297230      -0.17560297       0.57228016
F        6.68733591      -0.28806502      -1.46586800       1.39970462      -0.05414905       1.48607943
F        6.43666298      -1.39864714       0.47947319      -0.06919243       0.48941286      -1.25260673
F        6.43087203       0.81192248       0.52314598       0.21842877      -1.12589299      -0.60208330
O        4.70862232      -0.36912018      -0.41468129       0.39874279       0.46470833       0.10463329
C        4.21160198       0.70374487      -1.14284120       0.10196071       0.67822878      -0.86025549
F        4.45553326       1.91140055      -0.53445202       0.12955870      -0.33031185      -0.48035944
F        4.76958554       0.71205486      -2.39796808      -0.78795701       0.50101641      -0.06749891
C        2.68843471       0.54008841      -1.32347842       0.26222200      -1.28873581       0.10867120
F        2.15633973       1.57073825      -2.03263164       0.66008801      -0.04858365       0.56525786
F        2.50456057      -0.64440600      -2.00443077      -0.15732299       0.50830126      -0.07817768
C        2.05548130       0.34929217       0.06661025      -0.50478487       0.27031063      -0.07663396
F        2.29032882       1.47729318       0.80701225       0.87777524      -0.15441309      -0.57471635
F        2.55559837      -0.74206457       0.72049292       0.99716272       0.70341810      -0.34703679
O        0.67726286       0.15280453      -0.08009274       0.55266216      -0.03117864       0.00112702
C        0.19064492      -0.00860311       1.19868213      -1.79183868      -0.24677669       1.55377161
F        0.72983867      -1.09551453       1.88524034      -0.59118687       0.59927603      -0.19495243
F        0.52864746       1.12089090       1.92998699      -0.35828154      -0.40530253       1.09544712
C       -1.33155680      -0.06360858       1.25874808       0.22578397       0.70145626       1.86478257
O       -1.89168881      -1.09198098       0.54810517       1.61681858      -1.20769864      -1.08639235
C       -3.26333644      -1.18254271       0.61479439      -2.21334544      -0.13518380      -0.01254717
C       -3.96188592       0.05057843       0.04010917      -0.14655611       0.13640198       0.84530709
C       -5.43996228      -0.12495914       0.09723940      -1.90393472       1.36047538       1.25726928
O       -5.94047652      -1.19468174      -0.66324787      -0.58125688      -1.15358071       1.36157629
O       -3.61268778       0.29499207      -1.29324247       0.58347346      -0.05417126      -1.08331194
H       -1.65246151       0.96273569       0.99484286      -0.23021674      -0.20482198      -0.13164902
H       -1.56092954      -0.24083355       2.34483751       0.22112641       0.54736941      -0.38812984
H       -3.54830846      -2.01716976      -0.04386534       0.07782655      -0.05393119       0.14354879
H       -3.71988668      -1.39380049       1.62445031       0.76767728       0.15396390      -0.33805790
H       -3.79448098       0.96233214       0.62691369       0.34753074       0.05195082       0.40002504
H       -5.79541239      -0.20831328       1.16848939       0.48980712      -0.46411012      -0.77810563
H       -5.95620770       0.82438668      -0.19232538       0.46203379      -0.28493149      -0.17740107
H       -5.91100157      -0.89663309      -1.55508659       0.08279745       0.25857078      -1.63918326
H       -2.65434940       0.44014736      -1.34006706       0.07606721      -0.12574032      -0.09178713
34
Lattice="22.698 0.0 0.0 0.0 13.945 0.0 0.0 0.0 14.718" Properties=species:S:1:pos:R:3:forces:R:3 energy=-10974.253985537965 pbc="T T T"
C        6.09641077      -0.30150016      -0.23440769       0.05179343       0.01406840       0.46521900
F        6.69148474      -0.28982984      -1.46525618       1.43107477       0.01650154       1.36525670
F        6.43474385      -1.39990746       0.47292902       0.08159845       0.31157272      -0.98143731
F        6.43838848       0.80435480       0.52429691       0.28013499      -1.01197306      -0.73516095
O        4.71710584      -0.37129849      -0.41376391       0.21713311       0.51688231       0.06607986
C        4.21558073       0.70246157      -1.13859557      -0.15114860       0.59512879      -1.04511195
F        4.45544861       1.90819558      -0.53279411       0.20947699      -0.28506539      -0.43942451
F        4.76315899       0.70855421      -2.40138036      -0.69536592       0.57992438      -0.03844788
C        2.68264821       0.54068672      -1.32921214       0.57325205      -1.19599418       0.49425253
F        2.15638196       1.57797913      -2.03466699       0.70056935      -0.16874442       0.65750861
F        2.50307167      -0.63770653      -2.00724911      -0.44085473       0.46248452      -0.20148793
C        2.05758427       0.34802947       0.07361961      -0.58346921       0.37033433      -0.63959920
F        2.29159678       1.47822772       0.80059448       0.98560260      -0.11060940      -0.36005428
F        2.55439853      -0.74166560       0.72260690       1.09430379       0.61905442      -0.30501505
O        0.67766241       0.15970492      -0.08097762       0.51778286      -0.08690948       0.26620500
C        0.19567374      -0.00601565       1.20461576      -2.02069550      -0.39259656       1.27706224
F        0.72811495      -1.10015452       1.88842778      -0.47418375       0.66651774      -0.08309937
F        0.52642356       1.12139473       1.93273049      -0.33096262      -0.32405636       1.15620100
C       -1.32931568      -0.06121860       1.26181200       0.45413368       0.55836433       1.77570777
O       -1.89091739      -1.09159250       0.54708942       1.47855620      -0.96242831      -0.92094188
C       -3.26662198      -1.18413487       0.62417974      -2.01259909       0.09894669      -0.28049441
C       -3.96878733       0.05147174       0.04069077       0.23833192       0.06269622       0.66084579
C       -5.43730349      -0.12006446       0.09677036      -2.02040188       0.87461947       1.20557502
O       -5.95309241      -1.19882222      -0.66265780      -0.21582882      -0.51983499       0.88063930
O       -3.61435226       0.29840466      -1.29918661      -0.22881331      -0.18273250      -0.74927715
H       -1.62907025       0.97383675       1.01470543      -0.39050889      -0.21183005      -0.21391362
H       -1.54370208      -0.24896655       2.34279867       0.11161824       0.53619422      -0.23446812
H       -3.53677214      -2.01438029      -0.03811131      -0.04228099      -0.18090083       0.08664557
H       -3.72669748      -1.39296212       1.62733687       0.76424648       0.12664843      -0.22448463
H       -3.80675136       0.96052935       0.63294993       0.40490940       0.08127767       0.35288417
H       -5.78193163      -0.19992169       1.15956103       0.37464021      -0.53447532      -0.45446601
H       -5.95084408       0.82353605      -0.17525593       0.29816007      -0.05216567      -0.37073141
H       -5.87284099      -0.87229557      -1.55393110       0.02334914      -0.09990457      -1.13677653
H       -2.66673959       0.41743539      -1.35626586       0.76246807      -0.04162426      -0.07624817
34
Lattice="22.698 0.0 0.0 0.0 13.945 0.0 0.0 0.0 14.718" Properties=species:S:1:pos:R:3:forces:R:3 energy=-10974.262317147417 pbc="T T T"
C        6.10440556      -0.30695578      -0.23389218      -0.10997659       0.22048348       0.32674930
F        6.69636035      -0.29158628      -1.46395100       1.39304632       0.11763489       1.21133191
F        6.43286617      -1.40100956       0.46588641       0.27929146       0.14753614      -0.52086604
F        6.44604721       0.79627318       0.52507448       0.37850213      -0.88977652      -0.80033130
O        4.72572030      -0.37316508      -0.41280667       0.01901571       0.57591576       0.01479049
C        4.21943807       0.70165635      -1.13518950      -0.38153033       0.48356833      -1.18913457
F        4.45547034       1.90484584      -0.53135937       0.28099889      -0.21575858      -0.41749995
F        4.75637929       0.70534809      -2.40481218      -0.44979529       0.63947806      -0.01844245
C        2.67732222       0.54032426      -1.33454880       0.85131902      -1.04818718       0.85279485
F        2.15677998       1.58513431      -2.03636843       0.67170942      -0.32412651       0.72555449
F        2.50135887      -0.63077217      -2.01016977      -0.72843473       0.33861079      -0.33516860
C        2.05921853       0.34706426       0.08011515      -0.65354048       0.44835811      -1.16568581
F        2.29336528       1.47910608       0.79399385       1.06662841      -0.02966169      -0.21675239
F        2.55375443      -0.74095224       0.72456599       1.15784901       0.51889888      -0.27121282
O        0.67837422       0.16655289      -0.08170197       0.44092001      -0.19725996       0.53740047
C        0.19907927      -0.00374357       1.21157529      -2.14725865      -0.50657253       0.96695566
F        0.72615042      -1.10445600       1.89157302      -0.35485275       0.70725584       0.00160722
F        0.52403157       1.12173399       1.93606118      -0.40839898      -0.24142157       1.22309434
C       -1.32670974      -0.05838007       1.26630239       0.62671701       0.41910833       1.49891711
O       -1.88925431      -1.09178442       0.54551830       1.29367432      -0.69835214      -0.70803284
C       -3.27152428      -1.18564754       0.63333975      -1.64646327       0.32571023      -0.66938678
C       -3.97549728       0.05241541       0.04180324       0.62488291       0.04932583       0.49938998
C       -5.43626775      -0.11446718       0.09726980      -1.98131121       0.34555885       0.92991520
O       -5.96583846      -1.20327619      -0.66153665       0.39995095       0.36209914      -0.20906190
O       -3.61615473       0.30170705      -1.30558260      -0.68361624      -0.20923583      -0.43774193
H       -1.60941715       0.98291007       1.03252031      -0.51812990      -0.20781084      -0.28455555
H       -1.52540615      -0.25196683       2.33851537      -0.02912780       0.47492850       0.04144482
H       -3.52564055      -2.01332249      -0.03152787      -0.16263696      -0.28847324       0.03554033
H       -3.72619251      -1.39091141       1.62807453       0.66481979       0.07256851       0.01858626
H       -3.81514574       0.95950459       0.64236416       0.43297968       0.04446172       0.25012036
H       -5.76486462      -0.19664637       1.14628229       0.17989989      -0.58714879       0.05983175
H       -5.94262631       0.82218606      -0.16173531       0.08009083       0.24279230      -0.54089754
H       -5.83445691      -0.84891439      -1.56365744      -0.16283773      -0.66593972      -0.07661603
H       -2.67183104       0.39432496      -1.37319456       1.06506019      -0.03618232      -0.04426482
34
Lattice="22.698 0.0 0.0 0.0 13.945 0.0 0.0 0.0 14.718" Properties=species:S:1:pos:R:3:forces:R:3 energy=-10974.225833454097 pbc="T T T"
C        6.11231200      -0.31223427      -0.23311418      -0.27644298       0.43572612       0.16252174
F        6.70194343      -0.29328298      -1.46203064       1.26947157       0.22590479       1.02649661
F        6.43113032      -1.40203672       0.45857927       0.50824027      -0.06837171       0.08581301
F        6.45389816       0.78773968       0.52544560       0.39841551      -0.69177990      -0.75667394
O        4.73434622      -0.37468437      -0.41184052      -0.18850831       0.63497109      -0.04989212
C        4.22298891       0.70123960      -1.13273870      -0.57591751       0.34947725      -1.28775081
F        4.45563479       1.90138652      -0.53013667       0.33990197      -0.13733378      -0.41561220
F        4.74937116       0.70246673      -2.40825335      -0.22958781       0.65917654      -0.01689739
C        2.67268012       0.53911977      -1.33920039       1.08333610      -0.84942742       1.16646960
F        2.15751913       1.59212488      -2.03770138       0.58164242      -0.48503038       0.75560509
F        2.49927613      -0.62366585      -2.01326064      -0.89237024       0.12319217      -0.47786272
C        2.06032778       0.34645923       0.08567427      -0.71044312       0.50015142      -1.62242524
F        2.29567548       1.47996938       0.78728314       1.07438847       0.08203757      -0.10625592
F        2.55369836      -0.73997534       0.72638733       1.17495828       0.41012560      -0.25155517
O        0.67935192       0.17328190      -0.08210224       0.33262804      -0.36028875       0.79845334
C        0.20075984      -0.00187844       1.21931160      -2.16770094      -0.58351035       0.64753309
F        0.72400566      -1.10839830       1.89471907      -0.24694662       0.72925725       0.01984320
F        0.52143218       1.12195063       1.94001303      -0.63277169      -0.16447441       1.28615846
C       -1.32360034      -0.05520486       1.27199691       0.71292904       0.28734272       1.10181260
O       -1.88681108      -1.09239748       0.54352019       1.07683619      -0.42712436      -0.46235745
C       -3.27774925      -1.18689856       0.64196203      -1.17230586       0.49637453      -1.14422906
C       -3.98170525       0.05339871       0.04331688       0.97932003       0.07458957       0.36679989
C       -5.43682366      -0.10859230       0.09851626      -1.86897616      -0.12579718       0.51711772
O       -5.97834332      -1.20751180      -0.66054158       0.98270721       1.16779688      -1.15303475
O       -3.61836946       0.30488325      -1.31224257      -0.53956690      -0.15381231      -0.19825768
H       -1.59472386       0.98999410       1.04761127      -0.60573718      -0.20261003      -0.33857913
H       -1.50738904      -0.25042084       2.33462880      -0.17998126       0.37814588       0.36826529
H       -3.51606582      -2.01502612      -0.02460422      -0.26477198      -0.34040563       0.01942645
H       -3.71932354      -1.38816603       1.62899011       0.49907192       0.00609028       0.33395654
H       -3.81939541       0.95890545       0.65417268       0.43152363      -0.03865480       0.10883019
H       -5.74607551      -0.19899156       1.13357629      -0.05141729      -0.61058065       0.62750021
H       -5.93364186       0.82316021      -0.15339245      -0.13085083       0.49125836      -0.64800938
H       -5.79763158      -0.83190794      -1.57411719      -0.41536733      -1.15447056       0.80546857
H       -2.66672716       0.37086818      -1.39054698       0.75781716      -0.09549916       0.03290611
34
Lattice="22.698 0.0 0.0 0.0 13.945 0.0 0.0 0.0 14.718" Properties=species:S:1:pos:R:3:forces:R:3 energy=-10974.179295262404 pbc="T T T"
C        6.11999636      -0.31716274      -0.23220562      -0.44146687       0.64746208      -0.01732836
F        6.70817123      -0.29486495      -1.45958896       1.07954856       0.29670407       0.83106318
F        6.42965259      -1.40309861       0.45131571       0.69843027      -0.42041102       0.57985911
F        6.46195145       0.77885485       0.52543243       0.29739127      -0.46778676      -0.65101527
O        4.74285847      -0.37582074      -0.41090446      -0.39413859       0.68764489      -0.12802796
C        4.22607710       0.70110359      -1.13132239      -0.72730208       0.20056051      -1.33890798
F        4.45597185       1.89785745      -0.52912504       0.38625290      -0.01745792      -0.43506526
F        4.74224642       0.69992014      -2.41170311      -0.05392914       0.65674947      -0.00159468
C        2.66890829       0.53723290      -1.34291493       1.25986318      -0.61137360       1.41925927
F        2.15855368       1.59886912      -2.03865059       0.46596066      -0.62866103       0.75325171
F        2.49674020      -0.61649697      -2.01659421      -0.92075169      -0.15950171      -0.62476763
C        2.06086631       0.34625598       0.08993005      -0.74996677       0.52206328      -1.98254645
F        2.29853132       1.48087434       0.78051846       0.97952235       0.21102506      -0.06076248
F        2.55423900      -0.73879017       0.72808092       1.13695658       0.30325303      -0.25304021
O        0.68053021       0.17979364      -0.08202099       0.20912761      -0.56182482       1.03532325
C        0.20069904      -0.00048206       1.22756809      -2.08237567      -0.62154003       0.34184717
F        0.72173550      -1.11197024       1.89787521      -0.16557672       0.74168695      -0.02325193
F        0.51851143       1.12208375       1.94461807      -0.96326976      -0.09732416       1.33317253
C       -1.31991822      -0.05179882       1.27857654       0.68423584       0.15336120       0.69684495
O       -1.88371845      -1.09326812       0.54124325       0.84464375      -0.16054393      -0.20369452
C       -3.28491595      -1.18775083       0.64966512      -0.66580376       0.57174132      -1.60600109
C       -3.98712651       0.05444193       0.04512518       1.26630965       0.10403065       0.25217600
C       -5.43888096      -0.10281848       0.10017814      -1.79668971      -0.43852245       0.15413861
O       -5.99025554      -1.21104315      -0.66024186       1.29306673       1.69595716      -1.58423790
O       -3.62090957       0.30796670      -1.31902211       0.01049979      -0.09419377      -0.02018075
H       -1.58582901       0.99513865       1.05946117      -0.64895535      -0.20303580      -0.37225483
H       -1.49109481      -0.24525503       2.33426747      -0.31580344       0.27217673       0.63484607
H       -3.50902562      -2.01998829      -0.01749460      -0.33793335      -0.31908010       0.05307903
H       -3.70767718      -1.38536236       1.63310251       0.32043367      -0.04909961       0.61596640
H       -3.81951430       0.95793628       0.66702298       0.40482686      -0.13229486      -0.04403521
H       -5.72777859      -0.20718154       1.12687705      -0.25261985      -0.58412053       1.02600805
H       -5.92591000       0.82883694      -0.15125268      -0.26922515       0.57771262      -0.65540682
H       -5.76478238      -0.82595268      -1.57686656      -0.61918672      -1.41622668       1.20168724
H       -2.65436906       0.34649723      -1.40758440       0.05413879      -0.15420387       0.14769072
34
Lattice="22.698 0.0 0.0 0.0 13.945 0.0 0.0 0.0 14.718" Properties=species:S:1:pos:R:3:forces:R:3 energy=-10974.173517468762 pbc="T T T"
C        6.12732609      -0.32157109      -0.23131098      -0.59721602       0.83803861      -0.19837867