64
Lattice="23.957 0.0 0.0 0.0 15.089 0.0 0.0 0.0 15.138" Properties=species:S:1:pos:R:3:forces:R:3 energy=-15655.349663132845 pbc="T T T"
C       13.35900000       2.52100000       2.66000000       0.42488643       1.46284596       0.19960570
F       13.99000000       1.39700000       3.14000000       0.73907038       0.74763752      -0.93117692
F       13.83000000       3.64900000       3.30200000       0.31585024      -0.92705165      -1.50564086
F       13.57900000       2.70300000       1.30500000       1.23027026      -1.61078620       2.12148413
O       11.99600000       2.42800000       2.94300000      -0.23711982      -0.37743887      -2.79688709
C       11.42200000       1.30800000       2.35400000       0.87385413       0.26521432      -0.07638580
F       11.54700000       1.33000000       0.97800000      -0.68261473      -0.47932036       0.19562896
F       12.02400000       0.18000000       2.82200000      -0.62799143      -0.76118118      -0.46699704
C        9.95400000       1.29400000       2.72100000      -0.71610499      -0.60561037       1.22928007
F        9.32100000       0.22100000       2.17600000       0.91541172       0.98272206       1.83432349
F        9.88600000       1.20000000       4.10900000       0.74973082      -0.14271376       0.02948849
C        9.29300000       2.60800000       2.35300000      -0.81172944       1.11200073      -0.23107127
F        9.41200000       2.81300000       0.98900000       2.01587399      -2.02909700       0.86699013
F        9.90200000       3.67000000       2.99300000       1.32242480      -1.27204537       0.16686615
O        7.95500000       2.63100000       2.73600000       1.33962457      -0.61221040      -0.28708465
C        7.44100000       3.85000000       2.36600000      -1.63183931       1.75245716      -1.07748330
F        8.09600000       4.91400000       2.96500000      -0.38463758       0.93725294      -1.99045770
F        7.68200000       4.00800000       0.99400000      -2.60133473       0.29048437       1.07938094
C        5.94700000       3.97600000       2.52400000      -0.84832983       0.26059146      -0.98802650
O        5.51200000       3.80100000       3.80900000       0.59354047      -0.43750536       1.09255262
C        4.15000000       3.91000000       3.99500000      -1.44443654       0.37630554       0.30805943
C        3.36300000       2.90500000       3.19800000      -1.22890866       1.22450771      -0.96925302
C        1.87400000       3.08100000       3.47700000      -0.76478605      -0.73933931      -1.80316425
O        1.54300000       2.86400000       4.79800000      -0.71462903      -0.74464879       2.62388312
O        3.69900000       1.60300000       3.53100000       1.53424293      -1.98239843      -0.16738096
H        5.46600000       3.26400000       1.82100000       0.42798087       0.23466449      -0.01268727
H        5.68200000       5.00000000       2.18900000       0.27863164      -0.08106891      -0.35371245
H        3.93400000       3.71200000       5.06000000       0.27540875       0.05402919      -0.13814898
H        3.76000000       4.92300000       3.77900000       0.13748879       0.10243333      -0.13819816
H        3.46400000       3.02900000       2.10100000       0.06210713       0.28894312       0.21518387
H        1.51900000       4.08700000       3.16700000       0.35209959      -0.33988845       0.36874626
H        1.30200000       2.37000000       2.83500000       0.51266016       0.41180086       0.08194627
H        1.42300000       1.90100000       5.02100000       0.38532993       1.15386782      -0.63584878
H        4.64300000       1.46700000       3.25700000      -0.76128737       0.13835456       0.53718962
O        6.87400000       1.98200000       4.97300000      -0.96636720      -2.53458543       0.52639158
H        7.79900000       1.65800000       4.96300000      -0.77874039      -0.28369416       0.13990714
H        6.26900000       1.19500000       4.98800000       1.02185735       0.38686028       0.10599640
O        9.16000000      -0.02300000      -0.00200000      -0.14255093       0.49894048      -1.79454199
H       10.14000000      -0.04000000      -0.00700000      -0.69116051       0.39037776      -0.16617774
H        8.86600000       0.92400000      -0.00100000       0.86533161      -1.08101976      -0.24888400
O       12.73800000       2.54900000       4.99800000      -0.20836352      -0.92663016       3.13875963
H       13.69800000       2.37600000       5.08600000      -0.72222760      -0.25512863       0.48998478
H       12.26400000       1.67700000       4.99400000       0.87658051       0.86846254       0.47116721
O        6.67800000      -0.01900000       1.75200000      -0.10739325       0.32754864       0.02298637
H        5.72000000       0.16400000       1.84800000       0.59908655       0.17214888       0.04325834
H        7.15800000       0.84900000       1.71900000      -1.01636089      -0.84863078       0.32085192
O        6.07600000       2.24400000      -0.03300000      -0.44992596      -0.70792722       0.10731187
H        7.05400000       2.17100000      -0.03500000      -0.73219510      -0.09942481      -0.18084898
H        5.69600000       1.32800000      -0.01800000       0.88093440       0.73747350      -0.20401387
O       12.48000000       4.36900000       0.36900000      -1.21125160       0.62136590      -1.18515213
H       13.38300000       4.46100000       0.00000000      -0.64922069      -0.21278096      -0.01675165
H       12.06200000       3.56400000      -0.03200000       0.76021496       0.84808253       0.25684440
O        9.51500000       5.02100000       0.33500000       1.69175773       1.40624407      -1.08645990
H        9.59500000       5.04900000       1.31100000       0.44990554       0.32466425      -0.80759533
H       10.42800000       5.03500000      -0.05200000      -0.59263386       0.34659659       0.87620189
O        0.96700000       3.66800000       0.89400000      -1.01672374       1.19821090      -0.28774952
H        1.50300000       4.38000000       0.48700000      -0.75479094      -0.00076826       0.19730228
H        0.03300000       3.99200000       0.97600000       1.09616121       0.00553402      -0.28780864
O        7.51700000       4.08400000       4.99000000       1.55115817       1.26753318       1.96089508
H        7.14900000       4.99300000       4.99100000       0.64775674      -0.44834465       0.08855601
H        8.50700000       4.15000000       4.98900000      -1.09054622       0.54066886       0.28801231
O        2.18200000       1.69300000       0.34700000       0.77213034      -0.32128523      -0.22095706
H        2.77700000       0.93500000       0.17000000      -0.05894231       0.56220070      -0.11287092
H        2.62000000       2.51700000       0.00800000      -0.34039012      -1.28572125       0.23996645
64
Lattice="23.957 0.0 0.0 0.0 15.089 0.0 0.0 0.0 15.138" Properties=species:S:1:pos:R:3:forces:R:3 energy=-15655.273832999525 pbc="T T T"
C       13.36621582       2.51695626       2.65864798       0.25407039       1.50832759       0.20968028
F       13.99190258       1.39550391       3.13776600       0.90239360       0.60198107      -0.86058971
F       13.82819835       3.64608787       3.29768135       0.37302212      -0.89964423      -1.40665884
F       13.58654628       2.69693505       1.30809810       1.23386098      -1.60026188       1.90344778
O       12.00328139       2.42468166       2.94315805      -0.35210194      -0.48417505      -2.79593723
C       11.42502115       1.30463787       2.36041390       0.64525092       0.45648399      -0.29672334
F       11.54649020       1.32712214       0.98114457      -0.61959980      -0.48231706       0.13272755
F       12.01775302       0.17527563       2.81883801      -1.02734885      -0.94018078      -0.31392777
C        9.94788108       1.29823461       2.71692157      -0.29112111      -0.69488566       1.40575793
F        9.32010015       0.22882043       2.17382378       0.76132244       0.79876752       1.77602090
F        9.88420735       1.20612259       4.10628330       0.76526489      -0.26540786       0.16226006
C        9.29583659       2.60678757       2.35876121      -1.04325465       1.39485562      -0.56240443
F        9.41219232       2.81377393       0.98449330       2.05515985      -2.04898957       1.17553001
F        9.89926762       3.66866380       2.99634763       1.52575288      -1.26164129       0.14990893
O        7.95449375       2.63813446       2.73594365       1.47080435      -1.02106331      -0.22860341
C        7.44934961       3.85348538       2.36688889      -2.02350735       1.67249265      -1.03625613
F        8.09520754       4.90855296       2.96858187      -0.28475122       1.09469902      -1.85792316
F        7.67972774       4.00952374       0.99554052      -2.46853051       0.50219026       0.91839868
C        5.94905764       3.97612448       2.52249235      -0.09407741       0.23347888       0.00484888
O        5.50905936       3.80447832       3.81120121       0.71804608      -0.38074563       1.08427875
C        4.15188751       3.90949161       4.00492788      -1.73753527       0.54367432      -0.30569888
C        3.35672533       2.90548917       3.19544236      -0.86730595       1.29383978      -0.81680017
C        1.88037410       3.08073584       3.47343035      -1.24476597      -0.16200919      -1.21398123
O        1.53086630       2.86259483       4.79928374      -0.57553205       0.41836571       2.22643487
O        3.69467158       1.60561166       3.52815282       1.81040988      -2.21430331      -0.27476074
H        5.49244350       3.28201184       1.84294929      -0.13730336      -0.56688024      -0.74675280
H        5.69188564       4.97472968       2.19570320       0.06460782       0.73954739      -0.61232194
H        3.94094298       3.71354376       5.06021503       0.19934958      -0.05227263       0.16966287
H        3.73283479       4.91999022       3.78880748       0.33903232      -0.04077101      -0.08291772
H        3.44302623       3.03130554       2.09603638       0.16499670       0.31033070       0.25982112
H        1.51901456       4.10679422       3.18445507       0.52143883      -0.75570838       0.37242995
H        1.29295623       2.38209664       2.85251684       0.41721634       0.22240484      -0.22904182
H        1.45858388       1.92549388       5.03825184       0.25268359       0.01526319      -0.43480035
H        4.64487806       1.45237454       3.24784249      -1.15112599       0.29289261       0.62099948
O        6.88117475       1.98405185       4.97018889      -2.21163506      -2.43159190       0.46834654
H        7.77451114       1.63875443       4.96667932       0.27735736      -0.66074946       0.12293903
H        6.24521596       1.21077262       4.98122650       1.25593555       0.64999245       0.10946610
O        9.15761996      -0.01557798      -0.00053860      -0.11995016       0.05065667      -1.83055980
H       10.13688809      -0.04291296      -0.00824386      -0.70925906       0.51707455      -0.16430040
H        8.84535845       0.91811664       0.00035335       0.91279458      -0.78412027      -0.25471924
O       12.73831192       2.54911059       4.99209102      -0.64570611      -1.15292128       3.20246219
H       13.68586501       2.35721251       5.07937055      -0.28156458      -0.25336654       0.53641559
H       12.25884089       1.67355062       4.98975302       0.91667328       1.09994895       0.46937796
O        6.67869201      -0.02167330       1.75140225      -1.19368522      -0.17813388       0.13146419
H        5.69528443       0.13756882       1.84714433       1.51862469       0.13646336      -0.06041975
H        7.14848584       0.83649487       1.70453936      -0.84180012      -0.30814418       0.30468675
O        6.07800235       2.24469206      -0.04170987      -0.76275712      -0.90280333       0.02510525
H        7.05819839       2.19494476      -0.03578541      -0.80488585      -0.27266134      -0.17902149
H        5.67452663       1.32740191      -0.02507628       1.25933171       1.10181919      -0.20756506
O       12.48190555       4.36696110       0.36975390      -0.83668382       0.83864589      -1.14942034
H       13.38917648       4.45912911      -0.00073741      -0.82645345      -0.21038519       0.08898854
H       12.08427588       3.55129301      -0.01162233       0.56937838       0.61360181       0.12887674
O        9.51732551       5.02997185       0.33862750       0.78105338       1.36562634      -1.02066658
H        9.59806809       5.05251382       1.31096998       0.58209378       0.32007713      -0.71082085
H       10.39920762       5.03202088      -0.07583758       0.13592850       0.34695542       0.72522841
O        0.96283939       3.66426091       0.89279323       0.99965267       1.03912258      -0.73655663
H        1.51967685       4.37660609       0.47906686      -1.17982799      -0.46691351       0.48769899
H        0.06779383       3.98435768       0.99693337      -0.49040163       0.62515746      -0.15116814
O        7.51799084       4.08368851       4.99610332       1.21127020       0.89286925       1.96118108
H        7.15711242       4.98335325       4.98535189       0.34113321       0.01847623       0.09892111
H        8.49337005       4.16411016       5.00841630      -0.48231150       0.45941212       0.26983178
O        2.18386472       1.68818705       0.34723821       0.41827580      -0.33632045      -0.04979552
H        2.77339679       0.94066510       0.16330203       0.17388743       0.11107362      -0.15718977
H        2.63481431       2.49748098       0.02232167      -0.21159414      -0.80596700       0.09092234
64
Lattice="23.957 0.0 0.0 0.0 15.089 0.0 0.0 0.0 15.138" Properties=species:S:1:pos:R:3:forces:R:3 energy=-15655.184507297563 pbc="T T T"
C       13.37363575       2.51412419       2.65746440       0.07403597       1.48519647       0.21599121
F       13.99426346       1.39431354       3.13509494       1.10293542       0.46761039      -0.78419828
F       13.82658615       3.64271885       3.29264831       0.42847159      -0.82122013      -1.26841746
F       13.59471919       2.69005739       1.31216288       1.18861615      -1.58712167       1.71738231
O       12.01035045       2.42107134       2.94163000      -0.41733687      -0.53936941      -2.72786264
C       11.42856065       1.30164245       2.36658943       0.37039092       0.60425809      -0.50958151
F       11.54566573       1.32399933       0.98435656      -0.53853495      -0.49160598       0.05384268
F       12.01098429       0.17007378       2.81551658      -0.92840379      -1.04923228      -0.10874971
C        9.94152829       1.30191100       2.71397242       0.15962473      -0.71855450       1.54269668
F        9.31958695       0.23704653       2.17254953       0.63930924       0.51871151       1.69249957
F        9.88280334       1.21211039       4.10364900       0.75805237      -0.32323766       0.28192075
C        9.29783510       2.60669567       2.36407063      -1.22891839       1.59033052      -0.83978413
F        9.41342837       2.81350726       0.98058360       2.12682679      -2.01335326       1.39856963
F        9.89731011       3.66668686       2.99977140       1.71260251      -1.20929467       0.10727530
O        7.95487448       2.64465315       2.73574944       1.51273191      -1.35992131      -0.21139162
C        7.45607368       3.85831431       2.36694533      -2.33800326       1.50553111      -0.96625081
F        8.09427046       4.90366188       2.97122017      -0.19351683       1.25700345      -1.68127803
F        7.67620182       4.01130253       0.99754746      -2.29713420       0.81752406       0.73193977
C        5.95103971       3.97643652       2.52098860       0.55796641       0.29167409       0.93565312
O        5.50655174       3.80772703       3.81405630       0.80258827      -0.29828528       0.98673819
C        4.15237920       3.90941998       4.01461018      -1.93898417       0.65807941      -0.85100095
C        3.34975393       2.90701772       3.19222857      -0.48044962       1.25698958      -0.56436647
C        1.88574825       3.08034153       3.46888547      -1.54634763       0.31105722      -0.47243388
O        1.51838553       2.86144197       4.80191014      -0.42285385       1.64874695       1.68540995
O        3.69143494       1.60688798       3.52513994       1.57264366      -2.25971882      -0.26430189
H        5.51757267       3.29459720       1.85775028      -0.65376776      -1.30768519      -1.40271362
H        5.70238974       4.95653870       2.19654494      -0.13304140       1.40462506      -0.80490893
H        3.94979424       3.71458713       5.06205416       0.10954736      -0.14639787       0.44718904
H        3.70891498       4.91659016       3.79782123       0.50861779      -0.13260882      -0.03038068
H        3.42363190       3.03658172       2.09355991       0.26833084       0.32041800       0.22773800
H        1.52402061       4.11935440       3.20547523       0.58483279      -0.92886689       0.29049634
H        1.28790627       2.39632226       2.86784116       0.22621171      -0.04739258      -0.57487540
H        1.49658658       1.95013386       5.05134154       0.22306158      -1.27603834      -0.10804185
H        4.63573693       1.44055281       3.24462952      -1.03634581       0.35302876       0.55420372
O        6.88701576       1.98463731       4.96766022      -2.84954958      -1.99772757       0.39469639
H        7.75267729       1.61318381       4.97153549       1.11925301      -0.97180557       0.12045681
H        6.23345439       1.23276731       4.97550087       1.09916857       0.51649549       0.11864707
O        9.15516759      -0.00812540      -0.00018113      -0.19136557      -0.80419350      -1.83852750
H       10.12698678      -0.04087621      -0.01106049      -0.40704300       0.56768233      -0.16309880
H        8.83345465       0.90472727      -0.00073161       0.72760978      -0.05055680      -0.25288473
O       12.73823444       2.54852591       4.98811331      -0.85719194      -0.88024170       3.20671000
H       13.67103473       2.33599967       5.07787596       0.25053321      -0.24218404       0.58140986
H       12.26245666       1.68063054       4.98999918       0.62606480       0.82862903       0.44813856
O        6.67866416      -0.02445403       1.75088377      -1.86265005      -1.02304806       0.21636071
H        5.68510594       0.11244394       1.84571029       1.80812725       0.16818383      -0.10114435
H        7.13091353       0.82104003       1.69299534      -0.44311164       0.51780229       0.24730825
O        6.07954472       2.24483968      -0.05040460      -1.07084781      -0.59642089      -0.20563973
H        7.05469199       2.21627946      -0.03828451      -0.55906927      -0.39734369      -0.17093046
H        5.66510824       1.33735101      -0.03413948       1.32725155       0.93218823      -0.20024152
O       12.48330653       4.36542796       0.36981463      -0.62326392       1.26663591      -0.90219322
H       13.38744171       4.45524430      -0.00062298      -0.67539781      -0.13626843       0.08586387
H       12.11200215       3.54445973       0.00998902       0.21956932       0.08581194      -0.09026450
O        9.52012203       5.03976725       0.34163947      -0.21080005       1.37715682      -1.06804329
H        9.60670828       5.05909158       1.30413561       0.68016927       0.30694539      -0.31478605
H       10.37171641       5.03236300      -0.09273290       0.97290705       0.32276842       0.39181735
O        0.95928163       3.66114846       0.89114228       2.63813556       0.51599210      -1.06214937
H        1.52505977       4.36874264       0.47580224      -1.25653347      -0.55679137       0.54705110
H        0.09789327       3.98269970       1.01641967      -2.04161040       1.22807049       0.09560159
O        7.51971214       4.08391547       5.00338934       0.64732361       0.42789337       1.92759652
H        7.16849034       4.97388336       4.98065070      -0.04371136       0.57315463       0.08943718
H        8.47512316       4.18261806       5.03041557       0.43018056       0.38003279       0.27458614
O        2.18598169       1.68317127       0.34744640      -0.10627811      -0.65776329       0.22832838
H        2.77145812       0.94739345       0.15509936       0.39756513      -0.38090412      -0.20236808
H        2.64760314       2.47024683       0.03751369       0.09879286       0.02715076      -0.16779949
64
Lattice="23.957 0.0 0.0 0.0 15.089 0.0 0.0 0.0 15.138" Properties=species:S:1:pos:R:3:forces:R:3 energy=-15655.260644647435 pbc="T T T"
C       13.38111515       2.51248523       2.65645433      -0.10718152       1.38402342       0.22323732
F       13.99718447       1.39336065       3.13202562       1.29836963       0.35595752      -0.71015132
F       13.82519155       3.63893276       3.28697109       0.49584354      -0.67811804      -1.08026886
F       13.60349575       2.68237370       1.31709986       1.03264392      -1.85609156       1.53160631
O       12.01716783       2.41713575       2.93845690      -0.44892096      -0.53720869      -2.60470021
C       11.43239770       1.29913244       2.37235561       0.06815980       0.70334785      -0.71223081
F       11.54456775       1.32062685       0.98759588      -0.45249857      -0.50585111      -0.04114951
F       12.00374406       0.16433907       2.81213992      -0.60937278      -1.10462830       0.09381675
C        9.93530374       1.30501015       2.71226257       0.60843844      -0.65713235       1.63846652
F        9.31939843       0.24553605       2.17213483       0.55073638       0.23105146       1.57925059
F        9.88178433       1.21793403       4.10115788       0.73302311      -0.34223105       0.43964182
C        9.29884638       2.60788132       2.36870543      -1.35016310       1.67411806      -1.05545671
F        9.41574455       2.81221809       0.97738418       2.18321635      -1.91548967       1.54023666
F        9.89622236       3.66409577       3.00324964       1.86947565      -1.11019329       0.05922685
O        7.95616747       2.65035174       2.73542774       1.47368880      -1.57303902      -0.22925525
C        7.46091956       3.86435269       2.36622555      -2.56330209       1.26686572      -0.86505705
F        8.09323510       4.89940918       2.97300462      -0.12316853       1.43202127      -1.50663863
F        7.67150927       4.01349650       0.99992612      -2.09146056       1.12677643       0.52580687
C        5.95347000       3.97698287       2.52023649       0.73098326       0.34753176       1.28874176
O        5.50452812       3.81079586       3.81750646       0.85571325      -0.20217971       0.80580531
C        4.15131326       3.90987699       4.02360885      -2.04585642       0.65839732      -1.19630636
C        3.34239657       2.90955604       3.18856141      -0.09170612       1.11979363      -0.23400458
C        1.88988018       3.08019710       3.46396108      -1.70672430       0.56053404       0.27946460
O        1.50564974       2.86128338       4.80555293      -0.27503398       2.10998088       1.25557070
O        3.68914669       1.60680155       3.52196767       0.83822645      -2.09830608      -0.13786341
H        5.53644362       3.29466472       1.85912374      -0.84625971      -1.53856139      -1.57215927
H        5.71162030       4.95179352       2.18968166      -0.22675147       1.55458486      -0.82545914
H        3.95969414       3.71422911       5.06817402       0.03139184      -0.20500964       0.57200988
H        3.68986393       4.91192070       3.80654415       0.62180871      -0.13912783       0.00955563
H        3.40680616       3.04492512       2.09326346       0.36238006       0.31744428       0.13736342
H        1.53462498       4.12302298       3.22927618       0.53295769      -0.83702204       0.13807050
H        1.28502173       2.41009421       2.87766248       0.01651182      -0.30316964      -0.86661825
H        1.53672454       1.96255894       5.06339701       0.30906919      -1.84209219       0.08356007
H        4.61667536       1.43211045       3.24672167      -0.42971252       0.29920022       0.33980379
O        6.89113833       1.98401803       4.96536958      -2.26708028      -1.52399090       0.30897007
H        7.74155753       1.57831057       4.97754472       1.13219495      -0.92771767       0.12316907
H        6.23221464       1.25970617       4.97091099       0.52768034      -0.00262989       0.12720658
O        9.15259981      -0.00115780      -0.00093239      -0.36416263      -1.80915393      -1.80267350
H       10.11318903      -0.03340530      -0.01543839       0.12419073       0.55175674      -0.16574994
H        8.82851591       0.89085394      -0.00423732       0.39415381       0.87573726      -0.24921389
O       12.73764003       2.54741039       4.98606942      -0.61857545      -0.20931774       3.19297849
H       13.65860269       2.31246851       5.08194692       0.60553870      -0.17639918       0.60449623
H       12.27206546       1.69564253       4.99453515       0.04948839       0.10920580       0.41797223
O        6.67751302      -0.02785172       1.75049578      -1.82058035      -1.80324433       0.24658794
H        5.69223580       0.08892901       1.84330804       1.39919264       0.23438777      -0.07331556
H        7.10909952       0.81054186       1.68381868      -0.04708321       1.24846548       0.17720331
O        6.08044131       2.24462763      -0.05922335      -1.26899973       0.19334370      -0.47196611
H        7.04583388       2.23381058      -0.04241985      -0.08924227      -0.45482579      -0.15771461
H        5.66839500       1.35622351      -0.04511949       1.06555380       0.22568915      -0.18504416
O       12.48433164       4.36465866       0.36933129      -0.66952166       1.69937327      -0.55835589
H       13.37924167       4.45005506       0.00031339      -0.23275474      -0.00320504      -0.02286826
H       12.14183026       3.53844789       0.03073631      -0.15439702      -0.51445510      -0.29272929
O        9.52279143       5.05039315       0.34400736      -0.85284403       1.42157499      -1.27745541
H        9.62185941       5.06860758       1.29428793       0.75044688       0.28934118       0.22184956
H       10.35353839       5.03579483      -0.10587753       1.50947820       0.28570336       0.10753530
O        0.95731481       3.65834719       0.88885080       2.53348534       0.07424201      -0.99273441
H        1.51841449       4.35554929       0.47777428      -0.94140278      -0.22061030       0.33990719
H        0.10844934       3.99279745       1.03682113      -2.23971166       1.31791729       0.21579171
O        7.52182382       4.08440048       5.01183781       0.15444452       0.17955730       1.85946367
H        7.17944984       4.96990001       4.97680566      -0.34982385       0.90981172       0.06833171
H        8.46099418       4.20476383       5.05504332       1.19979365       0.30321410       0.30292873
O        2.18803457       1.67775883       0.34779228      -0.50584468      -1.16490232       0.44491626
H        2.77332515       0.95047558       0.14495951       0.46236199      -0.68368738      -0.20336479
H        2.66133766       2.44327257       0.05109946       0.44323361       0.86160799      -0.41129333
64
Lattice="23.957 0.0 0.0 0.0 15.089 0.0 0.0 0.0 15.138" Properties=species:S:1:pos:R:3:forces:R:3 energy=-15655.550214940708 pbc="T T T"
C       13.38850845       2.51195809       2.65562360      -0.28310523       1.20185509       0.23691841
F       14.00076487       1.39258854       3.12859564       1.47537499       0.28311386      -0.63698651
F       13.82404876       3.63480228       3.28074525       0.58232240      -0.48288427      -0.85170647
F       13.61279676       2.67374737       1.32281468       0.78719161      -1.66870223       1.32642808
O       12.02371448       2.41287620       2.93371301      -0.45817810      -0.47797430      -2.43351836
C       11.43628950       1.29718745       2.37754962      -0.23281896       0.74605951      -0.88984034
F       11.54323998       1.31699746       0.99081431      -0.37915684      -0.51968828      -0.15073756
F       11.99619435       0.15804336       2.80881092      -0.31155113      -1.12676202       0.23714774
C        9.92956796       1.30758141       2.71186894       1.02122415      -0.51240260       1.68282983
F        9.31948961       0.25414292       2.17252217       0.48759882      -0.06155683       1.44657946
F        9.88113758       1.22358387       4.09889004       0.69990764      -0.34567960       0.60092183
C        9.29877305       2.61041184       2.37249235      -1.39299513       1.63403170      -1.20055494
F        9.41916950       2.80995612       0.97496698       2.15150862      -1.74558180       1.60100342
F        9.89608404       3.66094085       3.00675797       1.98260520      -0.95656005       0.01352959
O        7.95834918       2.65510170       2.73496780       1.36041047      -1.64877344      -0.27033206
C        7.46370628       3.87140877       2.36481085      -2.69346012       0.96657434      -0.73771132
F        8.09213719       4.89588375       2.97402390      -0.07188953       1.61188788      -1.34635182
F        7.66575455       4.01626272       1.00257181      -1.85107294       1.17511760       0.27954094
C        5.95648751       3.97780840       2.52051965       0.32047497       0.31872193       0.85654529
O        5.50302055       3.81374276       3.82144255       0.87695724      -0.09782689       0.56462661
C        4.14860382       3.91086292       4.03164649      -2.04374634       0.51989625      -1.26665203
C        3.33496554       2.91299392       3.18470626       0.28731363       0.89788462       0.13260588
C        1.89264104       3.08050296       3.45926118      -1.81313419       0.47572877       0.90263944