      64
 i =        0, time =        0.000, E =      -575.3234885435
  C         0.0082627255        0.0284478246        0.0038817129
  F         0.0143726305        0.0145392349       -0.0181085079
  F         0.0061423092       -0.0180282843       -0.0292800530
  F         0.0239249475       -0.0313248043        0.0412562978
  O        -0.0046112464       -0.0073400174       -0.0543907943
  C         0.0169937573        0.0051575974       -0.0014854674
  F        -0.0132747429       -0.0093212969        0.0038043776
  F        -0.0122124890       -0.0148026171       -0.0090816465
  C        -0.0139260249       -0.0117772467        0.0239056912
  F         0.0178019236        0.0191109014        0.0356719124
  F         0.0145799431       -0.0027753407        0.0005734599
  C        -0.0157856244        0.0216249712       -0.0044936207
  F         0.0392025075       -0.0394596541        0.0168602736
  F         0.0257170678       -0.0247373440        0.0032450300
  O         0.0260515502       -0.0119055967       -0.0055829076
  C        -0.0317342221        0.0340798659       -0.0209537140
  F        -0.0074800101        0.0182266678       -0.0387082394
  F        -0.0505879062        0.0056490216        0.0209906174
  C        -0.0164973887        0.0050676970       -0.0192140563
  O         0.0115425244       -0.0085081246        0.0212467658
  C        -0.0280898185        0.0073179777        0.0059908022
  C        -0.0238984686        0.0238128836       -0.0188489702
  C        -0.0148727208       -0.0143778605       -0.0350659617
  O        -0.0138973220       -0.0144811134        0.0510264027
  O         0.0298362746       -0.0385515116       -0.0032550415
  H         0.0083229028        0.0045634978       -0.0002467282
  H         0.0054185227       -0.0015765392       -0.0068786119
  H         0.0053558475        0.0010507004       -0.0026865699
  H         0.0026737313        0.0019920112       -0.0026875263
  H         0.0012077913        0.0056190491        0.0041846600
  H         0.0068472468       -0.0066097780        0.0071709730
  H         0.0099696528        0.0080082517        0.0015936013
  H         0.0074934740        0.0224391565       -0.0123652900
  H        -0.0148046822        0.0026905678        0.0104466749
  O        -0.0187928499       -0.0492898390        0.0102366865
  H        -0.0151440895       -0.0055169731        0.0027207607
  H         0.0198719615        0.0075232347        0.0020613017
  O        -0.0027721742        0.0097028476       -0.0348982854
  H        -0.0134409320        0.0075916388       -0.0032316426
  H         0.0168280205       -0.0210224872       -0.0048400233
  O        -0.0040520254       -0.0180200876        0.0610391566
  H        -0.0140450907       -0.0049614620        0.0095286869
  H         0.0170467768        0.0168889074        0.0091627435
  O        -0.0020884662        0.0063698068        0.0004470138
  H         0.0116503785        0.0033477627        0.0008412407
  H        -0.0197650725       -0.0165032411        0.0062395764
  O        -0.0087496668       -0.0137669925        0.0020868836
  H        -0.0142389277       -0.0019335048       -0.0035169527
  H         0.0171314466        0.0143415763       -0.0039674382
  O        -0.0235550933        0.0120836428       -0.0230475394
  H        -0.0126253323       -0.0041379308       -0.0003257678
  H         0.0147838273        0.0164925794        0.0049948284
  O         0.0328994498        0.0273470932       -0.0211282811
  H         0.0087492697        0.0063137144       -0.0157052287
  H        -0.0115248936        0.0067402306        0.0170394138
  O        -0.0197721287        0.0233014921       -0.0055958373
  H        -0.0146783468       -0.0000149403        0.0038369184
  H         0.0213169416        0.0001076195       -0.0055969870
  O         0.0301652237        0.0246495958        0.0381333380
  H         0.0125968631       -0.0087189152        0.0017221403
  H        -0.0212077474        0.0105143353        0.0056009477
  O         0.0150155445       -0.0062480029       -0.0042969306
  H        -0.0011462454        0.0109330630       -0.0021949899
  H        -0.0066195339       -0.0250032975        0.0046666044
      64
 i =        1, time =        1.000, E =      -575.3207018365
  C         0.0049408825        0.0293323015        0.0040776323
  F         0.0175487616        0.0117066679       -0.0167358053
  F         0.0072541252       -0.0174952949       -0.0273551591
  F         0.0239947757       -0.0311201388        0.0370161658
  O        -0.0068472926       -0.0094157056       -0.0543723224
  C         0.0125481325        0.0088772002       -0.0057703502
  F        -0.0120492978       -0.0093795734        0.0025811399
  F        -0.0199787542       -0.0182836051       -0.0061049232
  C        -0.0056614042       -0.0135133746        0.0273376393
  F         0.0148053643        0.0155335552        0.0345381076
  F         0.0148820328       -0.0051613611        0.0031554557
  C        -0.0202880729        0.0271256231       -0.0109370249
  F         0.0399664960       -0.0398465030        0.0228604190
  F         0.0296711695       -0.0245350168        0.0029152645
  O         0.0286025907       -0.0198565199       -0.0044456285
  C        -0.0393509528        0.0325248036       -0.0201519732
  F        -0.0055375296        0.0212885065       -0.0361308529
  F        -0.0480052753        0.0097660456        0.0178600107
  C        -0.0018295143        0.0045404413        0.0000942957
  O         0.0139637730       -0.0074043236        0.0210858645
  C        -0.0337896812        0.0105727822       -0.0059448967
  C        -0.0168664153        0.0251611777       -0.0158842344
  C        -0.0242068440       -0.0031505772       -0.0236081762
  O        -0.0111923164        0.0081359178        0.0432972648
  O         0.0352068667       -0.0430613435       -0.0053432456
  H        -0.0026701252       -0.0110240655       -0.0145220299
  H         0.0012564221        0.0143819069       -0.0119077659
  H         0.0038767322       -0.0010165409        0.0032994175
  H         0.0065931289       -0.0007928700       -0.0016124930
  H         0.0032086749        0.0060349712        0.0050527163
  H         0.0101403707       -0.0146961882        0.0072426095
  H         0.0081135661        0.0043250856       -0.0044541542
  H         0.0049139134        0.0002968217       -0.0084555206
  H        -0.0223858364        0.0056958544        0.0120765171
  O        -0.0430094543       -0.0472869337        0.0091078901
  H         0.0053937419       -0.0128495311        0.0023907835
  H         0.0244240579        0.0126403406        0.0021287768
  O        -0.0023326593        0.0009851154       -0.0355987203
  H        -0.0137928927        0.0100554990       -0.0031951340
  H         0.0177510283       -0.0152487115       -0.0049535005
  O        -0.0125569847       -0.0224207493        0.0622779741
  H        -0.0054755593       -0.0049271948        0.0104316223
  H         0.0178264571        0.0213906015        0.0091279481
  O        -0.0232134816       -0.0034641525        0.0025565714
  H         0.0295325483        0.0026537898       -0.0011749771
  H        -0.0163704060       -0.0059924502        0.0059252140
  O        -0.0148332643       -0.0175567296        0.0004882194
  H        -0.0156525378       -0.0053024189       -0.0034814136
  H         0.0244901026        0.0214269718       -0.0040364978
  O        -0.0162709098        0.0163090659       -0.0223526668
  H        -0.0160719607       -0.0040913406        0.0017305515
  H         0.0110726465        0.0119326553        0.0025062536
  O         0.0151890700        0.0265572040       -0.0198488049
  H         0.0113199217        0.0062245091       -0.0138232647
  H         0.0026433885        0.0067472086        0.0141034471
  O         0.0194401493        0.0202077168       -0.0143237460
  H        -0.0229440015       -0.0090800221        0.0094842353
  H        -0.0095367933        0.0121573769       -0.0029397523
  O         0.0235554550        0.0173635424        0.0381388998
  H         0.0066339847        0.0003593055        0.0019237093
  H        -0.0093794654        0.0089341433        0.0052473927
  O         0.0081341693       -0.0065403914       -0.0009683686
  H         0.0033815722        0.0021600380       -0.0030568544
  H        -0.0041148509       -0.0156735628        0.0017681580
      64
 i =        2, time =        2.000, E =      -575.3174191783
  C         0.0014397704        0.0288824728        0.0042003602
  F         0.0214486790        0.0090935742       -0.0152502286
  F         0.0083324457       -0.0159701889       -0.0246667924
  F         0.0231149040       -0.0308646025        0.0333977686
  O        -0.0081159100       -0.0104890650       -0.0530484823
  C         0.0072029566        0.0117509490       -0.0099097826
  F        -0.0104728373       -0.0095602142        0.0010470735
  F        -0.0180545792       -0.0204043192       -0.0021148452
  C         0.0031042067       -0.0139736603        0.0300006740
  F         0.0124325853        0.0100873329        0.0329138764
  F         0.0147417715       -0.0062859717        0.0054824857
  C        -0.0238986577        0.0309270046       -0.0163312012
  F         0.0413601961       -0.0391534871        0.0271978490
  F         0.0333048162       -0.0235170372        0.0020861725
  O         0.0294179519       -0.0264462589       -0.0041109125
  C        -0.0454669246        0.0292779187       -0.0187905866
  F        -0.0037633031        0.0244448251       -0.0326956521
  F        -0.0446721479        0.0158983118        0.0142339623
  C         0.0108507192        0.0056721579        0.0181955563
  O         0.0156078569       -0.0058007251        0.0191890026
  C        -0.0377072386        0.0127976070       -0.0165493337
  C        -0.0093432576        0.0244445554       -0.0109751805
  C        -0.0300716737        0.0060490998       -0.0091873763
  O        -0.0082231982        0.0320630234        0.0327760051
  O         0.0305830499       -0.0439445346       -0.0051398534
  H        -0.0127137587       -0.0254304282       -0.0272784368
  H        -0.0025872434        0.0273156085       -0.0156529866
  H         0.0021303569       -0.0028469853        0.0086964423
  H         0.0098910412       -0.0025788309       -0.0005908102
  H         0.0052182041        0.0062311380        0.0044287990
  H         0.0113731871       -0.0180635850        0.0056492544
  H         0.0043991174       -0.0009216390       -0.0111795466
  H         0.0043378570       -0.0248149949       -0.0021010794
  H        -0.0201537172        0.0068653163        0.0107775464
  O        -0.0554149166       -0.0388496158        0.0076756227
  H         0.0217660056       -0.0188986094        0.0023425120
  H         0.0213754254        0.0100442381        0.0023073182
  O        -0.0037214678       -0.0156390737       -0.0357536674
  H        -0.0079157261        0.0110396637       -0.0031717667
  H         0.0141497575       -0.0009831732       -0.0049178251
  O        -0.0166697293       -0.0171179757        0.0623605810
  H         0.0048720952       -0.0047097297        0.0113066216
  H         0.0121750220        0.0161142690        0.0087149075
  O        -0.0362227764       -0.0198951173        0.0042075460
  H         0.0351624768        0.0032706547       -0.0019669445
  H        -0.0086171495        0.0100696514        0.0048093798
  O        -0.0208246744       -0.0115985396       -0.0039990560
  H        -0.0108721664       -0.0077271046       -0.0033240682
  H         0.0258109332        0.0181281749       -0.0038940775
  O        -0.0121205535        0.0246321467       -0.0175448647
  H        -0.0131343963       -0.0026499990        0.0016697865
  H         0.0042699435        0.0016687766       -0.0017553651
  O        -0.0040994083        0.0267814362       -0.0207701352
  H         0.0132271863        0.0059691374       -0.0061216141
  H         0.0189200298        0.0062768465        0.0076196343
  O         0.0513035685        0.0100344488       -0.0206555166
  H        -0.0244356855       -0.0108278683        0.0106384501
  H        -0.0397030010        0.0238821686        0.0018591550
  O         0.0125884400        0.0083212012        0.0374857842
  H        -0.0008500507        0.0111460829        0.0017392763
  H         0.0083656799        0.0073904611        0.0053398503
  O        -0.0020667801       -0.0127914595        0.0044402801
  H         0.0077314108       -0.0074074058       -0.0039354326
  H         0.0019212153        0.0005279983       -0.0032631805
      64
 i =        3, time =        3.000, E =      -575.3202171741
  C        -0.0020843488        0.0269149704        0.0043412747
  F         0.0252492694        0.0069222717       -0.0138102444
  F         0.0096426217       -0.0131872963       -0.0210078847
  F         0.0200817269       -0.0360952341        0.0297850005
  O        -0.0087301228       -0.0104470457       -0.0506533544
  C         0.0013254970        0.0136779380       -0.0138506840
  F        -0.0087996961       -0.0098372379       -0.0008002306
  F        -0.0118504139       -0.0214816003        0.0018244454
  C         0.0118322439       -0.0127791896        0.0318631008
  F         0.0107101174        0.0044932355        0.0307115344
  F         0.0142550299       -0.0066553344        0.0085496721
  C        -0.0262564919        0.0325564128       -0.0205253651
  F         0.0424567983       -0.0372503434        0.0299528342
  F         0.0363555131       -0.0215898221        0.0011517789
  O         0.0286586844       -0.0305907385       -0.0044583047
  C        -0.0498482891        0.0246366158       -0.0168226812
  F        -0.0023952466        0.0278483799       -0.0292994565
  F        -0.0406724324        0.0219123128        0.0102253156
  C         0.0142153612        0.0067584168        0.0250620371
  O         0.0166409733       -0.0039317694        0.0156704183
  C        -0.0397855730        0.0128037893       -0.0232644547
  C        -0.0017834000        0.0217765191       -0.0045506646
  C        -0.0331905032        0.0109006515        0.0054347211
  O        -0.0053485594        0.0410325953        0.0244169626
  O         0.0163009092       -0.0408055565       -0.0026810165
  H        -0.0164571312       -0.0299202554       -0.0305736301
  H        -0.0044096141        0.0302318623       -0.0160526244
  H         0.0006104740       -0.0039868027        0.0111238212
  H         0.0120922541       -0.0027056055        0.0001858275
  H         0.0070471701        0.0061733084        0.0026712932
  H         0.0103643770       -0.0162774871        0.0026850438
  H         0.0003211038       -0.0058957108       -0.0168530418
  H         0.0060104389       -0.0358229897        0.0016249847
  H        -0.0083565780        0.0058185179        0.0066081316
  O        -0.0440876922       -0.0296369044        0.0060085113
  H         0.0220176863       -0.0180412363        0.0023952570
  H         0.0102617488       -0.0000511433        0.0024737742
  O        -0.0070818356       -0.0351824424       -0.0350564182
  H         0.0024151251        0.0107299602       -0.0032233232
  H         0.0076650712        0.0170303782       -0.0048464385
  O        -0.0120293772       -0.0040705820        0.0620935456
  H         0.0117758528       -0.0034304178        0.0117555801
  H         0.0009623959        0.0021237146        0.0081282657
  O        -0.0354046509       -0.0350675190        0.0047953719
  H         0.0272099647        0.0045581165       -0.0014257607
  H        -0.0009156226        0.0242787881        0.0034460558
  O        -0.0246781157        0.0037599363       -0.0091782796
  H        -0.0017354858       -0.0088449534       -0.0030670609
  H         0.0207217223        0.0043889551       -0.0035985360
  O        -0.0130201234        0.0330475485       -0.0108582933
  H        -0.0045263591       -0.0000623281       -0.0004447168
  H        -0.0030025440       -0.0100045589       -0.0056926783
  O        -0.0165851758        0.0276452321       -0.0248425525
  H         0.0145938683        0.0056267901        0.0043142871
  H         0.0293546773        0.0055560458        0.0020912287
  O         0.0492684458        0.0014437773       -0.0193056105
  H        -0.0183073694       -0.0042901873        0.0066101424
  H        -0.0435554572        0.0256294108        0.0041964806
  O         0.0030034678        0.0034918336        0.0361608112
  H        -0.0068029908        0.0176930210        0.0013288401
  H         0.0233322718        0.0058965755        0.0058910258
  O        -0.0098371128       -0.0226537433        0.0086522437
  H         0.0089915092       -0.0132956027       -0.0039548156
  H         0.0086195213        0.0167556078       -0.0079983818
      64
 i =        4, time =        4.000, E =      -575.3308586861
  C        -0.0055055202        0.0233723603        0.0046073295
  F         0.0286914756        0.0055056880       -0.0123874154
  F         0.0113243677       -0.0093906039       -0.0165630538
  F         0.0153084395       -0.0324510918        0.0257949193
  O        -0.0089101454       -0.0092951202       -0.0473243975
  C        -0.0045276079        0.0145085476       -0.0173046395
  F        -0.0073734266       -0.0101063280       -0.0029313788
  F        -0.0060587048       -0.0219120327        0.0046117892
  C         0.0198596479       -0.0099646441        0.0327258298
  F         0.0094822874       -0.0011970898        0.0281314916
  F         0.0136110365       -0.0067223980        0.0116860691
  C        -0.0270894423        0.0317768572       -0.0233470764
  F         0.0418401811       -0.0339461614        0.0311345595
  F         0.0385555326       -0.0186021313        0.0002631086
  O         0.0264557715       -0.0320635385       -0.0052571215
  C        -0.0523794599        0.0187968783       -0.0143462011
  F        -0.0013980288        0.0313462285       -0.0261823744
  F        -0.0359976375        0.0228523989        0.0054362057
  C         0.0062322460        0.0061981548        0.0166571539
  O         0.0170541031       -0.0019024302        0.0109802394
  C        -0.0397445385        0.0101103723       -0.0246324602
  C         0.0055873606        0.0174610759        0.0025787737
  C        -0.0352598462        0.0092514517        0.0175535424
  O        -0.0003176606        0.0263438767        0.0216587139
  O        -0.0050173663       -0.0341649167        0.0014195882
  H        -0.0123267521       -0.0209832113       -0.0213613389
  H        -0.0037637011        0.0212259986       -0.0124020159
  H        -0.0004274346       -0.0041444428        0.0092324753
  H         0.0128615894       -0.0009462662        0.0006069858
  H         0.0085041294        0.0058367331        0.0003541362
  H         0.0071991287       -0.0094050781       -0.0012545468
  H        -0.0021748576       -0.0084919103       -0.0196015770
  H         0.0065956134       -0.0228221735       -0.0010372743
  H         0.0103242946        0.0028950112        0.0004475943
  O        -0.0121280878       -0.0240250845        0.0052798971
  H         0.0068494035       -0.0088782335        0.0020867631
  H        -0.0061202564       -0.0145206479        0.0025572325
  O        -0.0121444353       -0.0473971821       -0.0336376619
  H         0.0127096635        0.0097060250       -0.0033505407
  H         0.0024454505        0.0288290186       -0.0048305174
  O         0.0016145891        0.0108336561        0.0619029602
  H         0.0115048070       -0.0004457642        0.0113744673
  H        -0.0122996965       -0.0154047138        0.0076917024
  O        -0.0156884826       -0.0385714342        0.0032912001
  H         0.0057695194        0.0061162305        0.0004501622
  H         0.0014479030        0.0268008823        0.0029304482
  O        -0.0241402452        0.0259293219       -0.0107976329
  H         0.0079780118       -0.0086194996       -0.0028110877
  H         0.0107284963       -0.0172063004       -0.0033186796
  O        -0.0190189847        0.0351966449       -0.0058707056
  H         0.0065531237        0.0029609483       -0.0036523335
  H        -0.0074276685       -0.0159949585       -0.0067480936
  O        -0.0154143275        0.0285483027       -0.0307897102
  H         0.0152177324        0.0052533729        0.0118516604
  H         0.0275230133        0.0049899022        0.0020907961
  O         0.0111427107       -0.0015163342       -0.0077183744
  H        -0.0059551965        0.0093260411       -0.0018566226
  H        -0.0176174303        0.0146109252        0.0008553057
  O         0.0026289051        0.0086147873        0.0346620834
  H        -0.0086413850        0.0152168554        0.0011784426
  H         0.0252003934        0.0036478965        0.0062223627
  O        -0.0081918032       -0.0290816424        0.0077213908
  H         0.0056167949       -0.0126457989       -0.0024994796
  H         0.0105310803        0.0231732788       -0.0090837915
      64
 i =        5, time =        5.000, E =      -575.3410651227
  C        -0.0087919564        0.0182146453        0.0050547095
  F         0.0314500831        0.0049918587       -0.0109119113
  F         0.0131713201       -0.0040297826       -0.0128366498
  F         0.0335368721       -0.0268693022        0.0213560987
  O        -0.0088736114       -0.0073163157       -0.0431128596
  C        -0.0099249266        0.0142284588       -0.0200856609
  F        -0.0060491425       -0.0102392293       -0.0045887331
  F        -0.0021228675       -0.0219148432        0.0064589168
  C         0.0266460807       -0.0056771698        0.0325362305
  F         0.0084004709       -0.0063339000        0.0254440259
  F         0.0129605321       -0.0067516097        0.0150121527
  C        -0.0261546745        0.0285402123       -0.0247416319
  F         0.0383325236       -0.0291201807        0.0310115174
  F         0.0396276986       -0.0144759178       -0.0006152692
  O         0.0229061308       -0.0311447153       -0.0063470865
  C        -0.0530672482        0.0121862603       -0.0114378746
  F        -0.0008524330        0.0346639643       -0.0235110432
  F        -0.0300385043        0.0221477623        0.0010530323
  C        -0.0076357329        0.0050135923       -0.0001987195
  O         0.0168225950       -0.0003951235        0.0057582672
  C        -0.0373260302        0.0049950677       -0.0212482058
  C         0.0124625844        0.0122141951        0.0093576619
  C        -0.0378900042        0.0007844250        0.0254371519
  O         0.0076029682       -0.0003015506        0.0216839593
  O        -0.0249113144       -0.0263152671        0.0047777799
  H        -0.0044077730       -0.0047369577       -0.0054849301
  H        -0.0017997754        0.0054995284       -0.0060822182
  H        -0.0010933681       -0.0033687000        0.0036218874
  H         0.0121531409        0.0024498298        0.0006637533
  H         0.0094478929        0.0052000600       -0.0016630240
  H         0.0024515171        0.0013601665       -0.0055059020
  H        -0.0017534472       -0.0074368660       -0.0182916319
  H         0.0034095378        0.0026864940       -0.0071867763
  H         0.0274384408       -0.0000693895       -0.0050493153
  O         0.0198989177       -0.0246334319        0.0050914307
  H        -0.0111280850        0.0031288046        0.0013117657
  H        -0.0197266677       -0.0252392959        0.0025606891
  O        -0.0164974686       -0.0436152178       -0.0320665657
  H         0.0168933563        0.0085411084       -0.0034303065
  H         0.0023333032        0.0255516491       -0.0047446891
  O         0.0164636368        0.0168738576        0.0619447166
  H         0.0049534953        0.0037525621        0.0100939817
  H        -0.0207108537       -0.0253484304        0.0074582036
  O         0.0176317801       -0.0278263677       -0.0003117619
  H        -0.0232717734        0.0073705127        0.0031183407
  H        -0.0022541816        0.0153444803        0.0038088599
  O        -0.0198743360        0.0450024721       -0.0099798125
  H         0.0134733502       -0.0074876412       -0.0026985260
  H         0.0014039199       -0.0364550625       -0.0033093933
  O        -0.0259570620        0.0273950220       -0.0056467587
  H         0.0143534624        0.0053833782       -0.0059016966
  H        -0.0075839969       -0.0115648785       -0.0040046991
  O        -0.0021030602        0.0278690460       -0.0330949940
  H         0.0142526995        0.0048171175        0.0110946713
  H         0.0154031121        0.0047592109        0.0073029304
  O        -0.0327833415       -0.0015326074        0.0071921341
  H         0.0071677824        0.0238872022       -0.0110304314
  H         0.0132921612       -0.0002280631       -0.0050186832
  O         0.0127909433        0.0231367247        0.0337958852
  H        -0.0065746106        0.0050134879        0.0016344707
  H         0.0128315242       -0.0000492028        0.0055230560
  O         0.0043239094       -0.0269512601        0.0009658420
  H        -0.0009307949       -0.0067749380        0.0001075727
  H         0.0047320723        0.0159312830       -0.0054888330
      64
 i =        6, time =        6.000, E =      -575.3491686464
  C        -0.0115521954        0.0115541441        0.0055953976
  F         0.0325347407        0.0054071775       -0.0088947436
  F         0.0148907914        0.0020888587       -0.0114294983
  F         0.0377952947       -0.0263237097        0.0144261357
  O        -0.0086776094       -0.0048219611       -0.0379436682
  C        -0.0146123351        0.0127251662       -0.0221751021
  F        -0.0045369674       -0.0100293040       -0.0066119359
  F         0.0000141070       -0.0202192804        0.0080532068
  C         0.0318186829       -0.0002464326        0.0313162639
  F         0.0072060926       -0.0100921949        0.0226813038
  F         0.0124084494       -0.0069422263        0.0186228165
  C        -0.0233519345        0.0230621642       -0.0248083549
  F         0.0325988195       -0.0231317479        0.0299700185
  F         0.0393559273       -0.0093412274       -0.0015188351
  O         0.0180736614       -0.0282423068       -0.0075741691
  C        -0.0518560910        0.0053120757       -0.0082426201
  F        -0.0007969882        0.0375062516       -0.0214309876
  F        -0.0219448362        0.0203142851       -0.0034994961
  C        -0.0208453500        0.0044882561       -0.0160545288
  O         0.0159023314        0.0020831488        0.0004610859
  C        -0.0324685988       -0.0014839131       -0.0153777713
  C         0.0184487734        0.0069139351        0.0147887545
  C        -0.0416652314       -0.0110306144        0.0287432625
  O         0.0155398724       -0.0230750646        0.0204214546
  O        -0.0311284105       -0.0206013189        0.0040839682
  H         0.0025643679        0.0104514411        0.0092748695
  H        -0.0000072520       -0.0098490701        0.0006926160
  H        -0.0017073403       -0.0020224439       -0.0035353238
  H         0.0102200145        0.0067571324        0.0004520996
  H         0.0097813642        0.0042572602       -0.0025627125
  H        -0.0026471618        0.0128452357       -0.0091754521
  H         0.0012135109       -0.0032839992       -0.0133611302
  H        -0.0023469985        0.0241886321       -0.0118447054
  H         0.0309623533       -0.0002916445       -0.0063234777
  O         0.0328011905       -0.0345942118        0.0048131111
  H        -0.0222963293        0.0125090411        0.0003850719
  H        -0.0210221405       -0.0234248246        0.0025050560
  O        -0.0158546743       -0.0262838233       -0.0310096669
  H         0.0117235359        0.0071337331       -0.0032617701
  H         0.0063539655        0.0096098216       -0.0043297457
  O         0.0227508234        0.0066914086        0.0622115616
  H        -0.0034877933        0.0078086736        0.0082712680
  H        -0.0189524665       -0.0189576218        0.0068949980
  O         0.0422656049       -0.0099646277       -0.0037024985
  H        -0.0421578904        0.0071179122        0.0049194630
  H        -0.0076192958       -0.0017743291        0.0053642710
  O        -0.0160196438        0.0457313511       -0.0068129859
  H         0.0118426298       -0.0060767376       -0.0028125209
  H        -0.0000653984       -0.0381237293       -0.0035815854
  O        -0.0272714252        0.0132006820       -0.0102840005
  H         0.0138700872        0.0064784091       -0.0051955442
  H        -0.0051065786        0.0004754721        0.0006285975
  O         0.0153679191        0.0251048570       -0.0279446753
  H         0.0108427767        0.0042225089        0.0020847772
  H         0.0009512031        0.0046596523        0.0130901811
  O        -0.0568374349        0.0047481471        0.0148431367
  H         0.0125529175        0.0284802567       -0.0145314698
  H         0.0321169142       -0.0113413403       -0.0093529281
  O         0.0263583089        0.0400769637        0.0338721551
  H        -0.0030334843       -0.0069717679        0.0025204183
  H        -0.0045699781       -0.0045078559        0.0037237565
  O         0.0210518691       -0.0190195889       -0.0078575869
  H        -0.0075440644        0.0003712123        0.0028479827
  H        -0.0053641086        0.0016192819        0.0001757957
      64
 i =        7, time =        7.000, E =      -575.3587450127
  C        -0.0137588772        0.0036009428        0.0060571935
  F         0.0317685323        0.0064347325       -0.0058203804
  F         0.0163637853        0.0086603582       -0.0141149909
  F         0.0351119871       -0.0244062445        0.0020188200