#     Step Nr.          Time[fs]        Kin.[a.u.]          Temp[K]            Pot.[a.u.]        Cons Qty[a.u.]        UsedTime[s]
         0            0.000000         0.089225576       298.150000000      -575.323488543      -575.234262967         0.000000000
         1            1.000000         0.086423846       288.787932580      -575.320701837      -575.234277990        27.877921608
         2            2.000000         0.083609638       279.384169249      -575.317419178      -575.233809540         3.996579895
         3            3.000000         0.086581061       289.313269012      -575.320217174      -575.233636114         3.989276632
         4            4.000000         0.096559161       322.655398330      -575.330858686      -575.234299525         4.047104931
         5            5.000000         0.106690505       356.509595706      -575.341065123      -575.234374617         4.018434579
         6            6.000000         0.115085893       384.563040352      -575.349168646      -575.234082754         4.006373759
         7            7.000000         0.124568226       416.248548303      -575.358745013      -575.234176786         4.057382356
         8            8.000000         0.134829351       450.536412255      -575.369012777      -575.234183426         4.022379775
         9            9.000000         0.145468087       486.086075090      -575.379538822      -575.234070734         4.023983288
        10           10.000000         0.156443462       522.760627000      -575.390667957      -575.234224495         4.003524734
        11           11.000000         0.166232150       555.469826543      -575.400459629      -575.234227479         4.040843037
        12           12.000000         0.174573430       583.342468121      -575.408749182      -575.234175753         4.046783471
        13           13.000000         0.181441542       606.292475539      -575.415651568      -575.234210026         4.017920810
        14           14.000000         0.188071209       628.445711435      -575.421924074      -575.233852865         4.033915168
        15           15.000000         0.198241514       662.430098462      -575.432213977      -575.233972463         4.020809388
        16           16.000000         0.210733384       704.172064127      -575.445143592      -575.234410209         4.032973341
        17           17.000000         0.220269399       736.036949998      -575.454594419      -575.234325020         4.090670331
        18           18.000000         0.227212314       759.236916260      -575.461282051      -575.234069736         4.048745636
        19           19.000000         0.234811724       784.630575796      -575.468854033      -575.234042309         4.036163596
        20           20.000000         0.244265156       816.219510394      -575.478284376      -575.234019220         4.024676163
        21           21.000000         0.254664198       850.968228117      -575.489072069      -575.234407871         4.039968267
        22           22.000000         0.261341509       873.280666098      -575.495939117      -575.234597609         4.021621822
        23           23.000000         0.262338096       876.610793123      -575.496389176      -575.234051080         4.035717204
        24           24.000000         0.262567298       877.376678114      -575.496497743      -575.233930445         4.031142391
        25           25.000000         0.265129955       885.939874540      -575.499178496      -575.234048542         4.021297772
        26           26.000000         0.269016784       898.927833436      -575.503060821      -575.234044037         4.007753289
        27           27.000000         0.272677243       911.159369435      -575.506876840      -575.234199597         4.021964700
        28           28.000000         0.275419929       920.324137301      -575.509405695      -575.233985766         4.015766088
        29           29.000000         0.278576853       930.873095589      -575.512616324      -575.234039472         4.019191114
        30           30.000000         0.282286486       943.268948116      -575.516554953      -575.234268467         3.996988071
        31           31.000000         0.284219074       949.726749867      -575.518453909      -575.234234835         4.025818893
        32           32.000000         0.285410204       953.706949283      -575.519274722      -575.233864518         4.081636371
        33           33.000000         0.288682978       964.643023507      -575.522915472      -575.234232494         4.036944997
        34           34.000000         0.290915058       972.101587715      -575.525257312      -575.234342253         3.990144114
        35           35.000000         0.290229556       969.810962806      -575.524265643      -575.234036086         3.988887498
        36           36.000000         0.291199606       973.052414302      -575.525044058      -575.233844451         3.984025512
        37           37.000000         0.296980425       992.369197713      -575.531069942      -575.234089517         3.978818990
        38           38.000000         0.304544647      1017.645278002      -575.539018299      -575.234473651         3.982409566
        39           39.000000         0.308415313      1030.579227225      -575.542994007      -575.234578693         3.990581079
        40           40.000000         0.306081618      1022.781111069      -575.540486547      -575.234404930         4.038020799
        41           41.000000         0.301860309      1008.675479423      -575.535664445      -575.233804136         3.971135684
        42           42.000000         0.301213196      1006.513132143      -575.535400263      -575.234187067         3.968654128
        43           43.000000         0.301323062      1006.880253264      -575.535766424      -575.234443362         3.968011815
        44           44.000000         0.299187483       999.744148463      -575.533416599      -575.234229117         3.965342754
        45           45.000000         0.297553330       994.283575817      -575.531598422      -575.234045092         3.963920744
        46           46.000000         0.298874227       998.697393942      -575.532986693      -575.234112466         3.971315768
        47           47.000000         0.302356114      1010.332228217      -575.536581545      -575.234225431         4.005181349
        48           48.000000         0.305089063      1019.464460964      -575.539546194      -575.234457131         4.054942009
        49           49.000000         0.304623546      1017.908921968      -575.538950869      -575.234327323         3.994301829
        50           50.000000         0.302338362      1010.272908489      -575.536604920      -575.234266558         3.972947552
        51           51.000000         0.298692105       998.088828790      -575.533239191      -575.234547086         4.020352277
        52           52.000000         0.291713758       974.770468196      -575.526037958      -575.234324200         3.991630230
        53           53.000000         0.284289340       949.961548155      -575.518226073      -575.233936733         4.013572856
        54           54.000000         0.281534141       940.754964932      -575.515375736      -575.233841596         3.989780344
        55           55.000000         0.284342573       950.139427786      -575.518412219      -575.234069646         4.012216170
        56           56.000000         0.288310680       963.398978193      -575.522774765      -575.234464085         4.038557919
        57           57.000000         0.288826846       965.123763724      -575.523078598      -575.234251752         3.982373194
        58           58.000000         0.288083487       962.639806367      -575.521770143      -575.233686656         3.995945061
        59           59.000000         0.291478209       973.983373826      -575.525448991      -575.233970782         4.000960972
        60           60.000000         0.295715562       988.142619665      -575.530310849      -575.234595287         4.000069511
        61           61.000000         0.293496417       980.727278736      -575.527948893      -575.234452476         3.992506429
        62           62.000000         0.286736990       958.140446292      -575.520617225      -575.233880235         3.977712877
        63           63.000000         0.283498920       947.320335475      -575.517124237      -575.233625317         4.009520733
        64           64.000000         0.285876418       955.264817289      -575.519997301      -575.234120883         4.008372739
        65           65.000000         0.287849350       961.857428786      -575.522219016      -575.234369667         3.944909048
        66           66.000000         0.285630612       954.443449967      -575.519609426      -575.233978813         3.933177682
        67           67.000000         0.283207675       946.347129622      -575.516863562      -575.233655887         3.930662075
        68           68.000000         0.283970911       948.897508655      -575.518022617      -575.234051705         3.935871344
        69           69.000000         0.283848937       948.489926552      -575.518111158      -575.234262221         3.942535931
        70           70.000000         0.280467325       937.190166483      -575.514422070      -575.233954745         3.929818520
        71           71.000000         0.277624574       927.691028661      -575.511410381      -575.233785806         3.961777648
        72           72.000000         0.278044519       929.094286325      -575.511991261      -575.233946742         3.978597119
        73           73.000000         0.279025256       932.371448052      -575.513301154      -575.234275899         3.936189583
        74           74.000000         0.276098400       922.591269337      -575.510344431      -575.234246031         3.925448095
        75           75.000000         0.270277126       903.139305478      -575.503973238      -575.233696112         3.924286645
        76           76.000000         0.267879967       895.129125053      -575.501472531      -575.233592564         3.921332076
        77           77.000000         0.269762569       901.419897851      -575.503936578      -575.234174008         3.930409313
        78           78.000000         0.268424310       896.948064521      -575.502886153      -575.234461843         3.921031311
        79           79.000000         0.261494941       873.793362803      -575.495439792      -575.233944852         3.946570438
        80           80.000000         0.256406060       856.788711915      -575.489945537      -575.233539477         3.973706325
        81           81.000000         0.258559459       863.984360935      -575.492517680      -575.233958221         3.918657550
        82           82.000000         0.263304861       879.841266027      -575.497733467      -575.234428606         3.920673034
        83           83.000000         0.263610722       880.863311068      -575.497924280      -575.234313558         3.938242854
        84           84.000000         0.260608965       870.832849289      -575.494389685      -575.233780719         3.909858543
        85           85.000000         0.261179998       872.740973076      -575.494956929      -575.233776931         3.909910026
        86           86.000000         0.264641977       884.309281596      -575.499019195      -575.234377218         3.907269448
        87           87.000000         0.265060278       885.707048192      -575.499335043      -575.234274765         3.931215933
        88           88.000000         0.263474042       880.406590383      -575.497365886      -575.233891845         3.963050979
        89           89.000000         0.264740248       884.637656007      -575.498642591      -575.233902343         3.897259139
        90           90.000000         0.268579158       897.465493025      -575.502862318      -575.234283160         3.900190041
        91           91.000000         0.270545224       904.035161185      -575.504957947      -575.234412724         3.902600950
        92           92.000000         0.269538815       900.672217493      -575.503710615      -575.234171800         3.898559464
        93           93.000000         0.268955456       898.722904586      -575.502843046      -575.233887590         3.920384064
        94           94.000000         0.271376904       906.814245192      -575.505544065      -575.234167162         3.942183312
        95           95.000000         0.272919913       911.970259377      -575.507475033      -575.234555119         3.918875651
        96           96.000000         0.269527658       900.634935877      -575.503814639      -575.234286981         3.967350716
        97           97.000000         0.265390095       886.809140621      -575.499226504      -575.233836409         3.901290092
        98           98.000000         0.266410415       890.218570602      -575.500320487      -575.233910072         3.895473944
        99           99.000000         0.271394321       906.872446209      -575.505733559      -575.234339238         3.906016866
       100          100.000000         0.274097996       915.906860475      -575.508685135      -575.234587139         3.889586468
       101          101.000000         0.271417106       906.948584025      -575.505598249      -575.234181143         3.893019687
       102          102.000000         0.268397511       896.858515102      -575.502119690      -575.233722178         3.893071942
       103          103.000000         0.269691134       901.181193136      -575.503951078      -575.234259944         3.911905807
       104          104.000000         0.269755037       901.394727857      -575.504303013      -575.234547976         3.961676912
       105          105.000000         0.265182281       886.114722383      -575.499235840      -575.234053560         3.898007220
       106          106.000000         0.261538618       873.939313678      -575.495334142      -575.233795523         3.888767122
       107          107.000000         0.262656457       877.674605698      -575.496649304      -575.233992847         3.884406772
       108          108.000000         0.266107392       889.206011966      -575.500318724      -575.234211332         3.889075217
       109          109.000000         0.268489704       897.166578615      -575.502719753      -575.234230049         3.888649195
       110          110.000000         0.269863838       901.758289127      -575.503823520      -575.233959683         3.889203683
       111          111.000000         0.272702355       911.243281325      -575.506790691      -575.234088336         3.908934609
       112          112.000000         0.274951246       918.758021031      -575.509503812      -575.234552566         3.951660972
       113          113.000000         0.272841405       911.707920316      -575.507040450      -575.234199046         3.927313956
       114          114.000000         0.270533460       903.995854066      -575.504303173      -575.233769712         3.882409976
       115          115.000000         0.273325796       913.326528129      -575.507301928      -575.233976133         3.874934218
       116          116.000000         0.278990544       932.255459663      -575.513371079      -575.234380535         3.875137874
       117          117.000000         0.282279684       943.246221417      -575.516733427      -575.234453742         3.883367735
       118          118.000000         0.281847206       941.801082744      -575.515964208      -575.234117002         3.875196060
       119          119.000000         0.281553028       940.818075950      -575.515271139      -575.233718111         3.900369255
       120          120.000000         0.285360138       953.539650518      -575.519459037      -575.234098899         3.942984667
       121          121.000000         0.288551896       964.205009079      -575.523260981      -575.234709085         3.910524397
       122          122.000000         0.284054516       949.176877241      -575.518465403      -575.234410887         3.876650617
       123          123.000000         0.275017400       918.979076770      -575.508883936      -575.233866536         3.875394864
       124          124.000000         0.268941792       898.677245000      -575.502772613      -575.233830821         3.871433611
       125          125.000000         0.267422152       893.599322239      -575.501502870      -575.234080717         3.897763313
       126          126.000000         0.266940534       891.989981441      -575.501171047      -575.234230513         3.868549177
       127          127.000000         0.265273462       886.419407938      -575.499354749      -575.234081287         3.873739532
       128          128.000000         0.264859021       885.034541622      -575.498723129      -575.233864108         3.914288640
       129          129.000000         0.267271707       893.096606215      -575.501523344      -575.234251636         3.920706525
       130          130.000000         0.268347281       896.690669605      -575.502724915      -575.234377634         3.911425238
       131          131.000000         0.267106927       892.545986638      -575.501041404      -575.233934477         3.867887981
       132          132.000000         0.268407508       896.891917255      -575.502275288      -575.233867780         3.866467345
       133          133.000000         0.272877629       911.828966678      -575.507215807      -575.234338178         3.868551187
       134          134.000000         0.275081156       919.192116891      -575.509611978      -575.234530823         3.863961698
       135          135.000000         0.272627175       910.992066402      -575.506795382      -575.234168207         3.868664513
       136          136.000000         0.270452768       903.726218703      -575.504166716      -575.233713948         3.911373223
       137          137.000000         0.274010605       915.614840667      -575.507979008      -575.233968403         3.937430449
       138          138.000000         0.280195680       936.282457558      -575.514765113      -575.234569433         3.870705609
       139          139.000000         0.280867687       938.527988436      -575.515436804      -575.234569117         3.898789067
       140          140.000000         0.276130992       922.700178784      -575.510065312      -575.233934320         3.914226990
       141          141.000000         0.274042254       915.720595844      -575.507728111      -575.233685857         3.870972189
       142          142.000000         0.278036848       929.068652587      -575.512081971      -575.234045124         3.883276435
       143          143.000000         0.282927379       945.410513955      -575.517432062      -575.234504683         3.876651082
       144          144.000000         0.282807185       945.008881650      -575.517188497      -575.234381312         3.911876206
       145          145.000000         0.279109599       932.653284010      -575.512922836      -575.233813237         3.922957906
       146          146.000000         0.278391220       930.252797879      -575.512247110      -575.233855890         3.899740462
       147          147.000000         0.280316333       936.685622016      -575.514702736      -575.234386403         3.871176155
       148          148.000000         0.279250436       933.123896848      -575.513540405      -575.234289968         3.870818790
       149          149.000000         0.275657514       921.118037225      -575.509639517      -575.233982003         3.873392630
       150          150.000000         0.273296404       913.228315585      -575.507332504      -575.234036100         3.895065097
       151          151.000000         0.271959967       908.762570140      -575.506188827      -575.234228859         3.870865708
       152          152.000000         0.269084914       899.155492822      -575.503330243      -575.234245329         3.901176337
       153          153.000000         0.264544386       883.983179827      -575.498499538      -575.233955151         3.922919787
       154          154.000000         0.262385942       876.770672884      -575.496125527      -575.233739585         3.894921411
       155          155.000000         0.265048711       885.668396299      -575.499212525      -575.234163814         3.875632213
       156          156.000000         0.266904548       891.869731327      -575.501473585      -575.234569037         3.876789006
       157          157.000000         0.263466825       880.382475386      -575.497566375      -575.234099550         3.873159472
       158          158.000000         0.260171375       869.370629108      -575.493828172      -575.233656797         3.870295310
       159          159.000000         0.262844235       878.302070978      -575.496770601      -575.233926366         3.868768842
       160          160.000000         0.267846823       895.018372017      -575.502429164      -575.234582342         3.898449930
       161          161.000000         0.267479978       893.792548672      -575.502101291      -575.234621313         3.920877319
       162          162.000000         0.261154191       872.654737927      -575.495200936      -575.234046745         3.897005587
       163          163.000000         0.256416806       856.824621317      -575.490140868      -575.233724062         3.864019000
       164          164.000000         0.257287519       859.734134204      -575.491453205      -575.234165686         3.868704388
       165          165.000000         0.258003075       862.125185395      -575.492539086      -575.234536012         3.878329750
       166          166.000000         0.253951509       848.586754830      -575.488175177      -575.234223668         3.874417932
       167          167.000000         0.248926358       831.795059631      -575.482783984      -575.233857626         3.866668118
       168          168.000000         0.247857923       828.224849305      -575.481753156      -575.233895233         3.888968830
       169          169.000000         0.250796202       838.043199306      -575.484952138      -575.234155936         3.912767622
       170          170.000000         0.254549315       850.584341037      -575.488842385      -575.234293070         3.906315257
       171          171.000000         0.257356932       859.966081584      -575.491475658      -575.234118725         3.870224277
       172          172.000000         0.260841753       871.610715809      -575.494922367      -575.234080614         3.863308339
       173          173.000000         0.264859760       885.037008716      -575.499257237      -575.234397477         3.863606753
       174          174.000000         0.265403510       886.853967063      -575.499870280      -575.234466770         3.864340682
       175          175.000000         0.262448309       876.979072456      -575.496465950      -575.234017641         3.864518541
       176          176.000000         0.261177969       872.734192249      -575.495084729      -575.233906760         3.867814657
       177          177.000000         0.262938762       878.617936527      -575.497187433      -575.234248670         3.896389370
       178          178.000000         0.263387943       880.118887730      -575.497941927      -575.234553985         3.896256534
       179          179.000000         0.259796692       868.118612533      -575.494033210      -575.234236518         3.870426884
       180          180.000000         0.257006348       858.794593954      -575.490634534      -575.233628186         3.862549853
       181          181.000000         0.261292209       873.115930614      -575.495235462      -575.233943253         3.860768339
       182          182.000000         0.268015383       895.581621556      -575.502743649      -575.234728266         3.858309363
       183          183.000000         0.267925717       895.281998657      -575.502484215      -575.234558498         3.859996536
       184          184.000000         0.262772484       878.062313814      -575.496686794      -575.233914309         3.905295766
       185          185.000000         0.260878028       871.731929554      -575.494799858      -575.233921830         3.925407760
       186          186.000000         0.263786391       881.450315550      -575.498024572      -575.234238180         3.903244606
       187          187.000000         0.267134758       892.638985548      -575.501575716      -575.234440958         3.880411508
       188          188.000000         0.267995702       895.515857151      -575.502340116      -575.234344414         3.882791570
       189          189.000000         0.267740441       894.662895676      -575.501871383      -575.234130942         3.857634834
       190          190.000000         0.268947751       898.697157060      -575.503151141      -575.234203391         3.864745848
       191          191.000000         0.270661536       904.423824064      -575.505086097      -575.234424560         3.865885844
       192          192.000000         0.270317070       903.272778798      -575.504674536      -575.234357466         3.862960309
       193          193.000000         0.269020549       898.940414509      -575.503208224      -575.234187675         3.891312787
       194          194.000000         0.268243663       896.344424451      -575.502650731      -575.234407069         3.884239320
       195          195.000000         0.266358330       890.044526576      -575.500748710      -575.234390381         3.906841177
       196          196.000000         0.263353667       880.004353699      -575.497447563      -575.234093896         3.856640864
       197          197.000000         0.261844473       874.961336625      -575.495773275      -575.233928802         3.851281301
       198          198.000000         0.264394703       883.483007456      -575.498311874      -575.233917171         3.849787435
       199          199.000000         0.270631662       904.323997962      -575.504946906      -575.234315244         3.859879087
       200          200.000000         0.275159955       919.455426932      -575.509766779      -575.234606824         3.847584772
       201          201.000000         0.274179202       916.178210527      -575.508419967      -575.234240765         3.876496393
       202          202.000000         0.272987219       912.195163344      -575.506818170      -575.233830952         3.893037216
       203          203.000000         0.276091020       922.566610355      -575.510374034      -575.234283013         3.952125138
       204          204.000000         0.279012859       932.330025186      -575.513633054      -575.234620195         3.878514643
       205          205.000000         0.277587621       927.567548867      -575.511955776      -575.234368155         3.869963026
       206          206.000000         0.274033255       915.690523903      -575.508113492      -575.234080237         3.848712707
       207          207.000000         0.272465957       910.453351126      -575.506512641      -575.234046684         3.844688957
       208          208.000000         0.274156094       916.100993618      -575.508387284      -575.234231190         3.850336273
       209          209.000000         0.276128081       922.690449374      -575.510711415      -575.234583335         3.867863599
       210          210.000000         0.275184834       919.538561637      -575.509527268      -575.234342434         3.865567107
       211          211.000000         0.273314041       913.287250290      -575.507623662      -575.234309621         3.884030391
       212          212.000000         0.272103928       909.243621289      -575.506441076      -575.234337148         3.867456181
       213          213.000000         0.271572928       907.469268133      -575.505806193      -575.234233264         3.865098798
       214          214.000000         0.272340073       910.032705094      -575.506719911      -575.234379839         3.868175084
       215          215.000000         0.272806556       911.591471381      -575.507194402      -575.234387846         3.846145129
       216          216.000000         0.271893956       908.541990155      -575.506162115      -575.234268159         3.850211021
       217          217.000000         0.270631863       904.324669195      -575.504938492      -575.234306629         3.854854520
       218          218.000000         0.268745733       898.022108002      -575.503000786      -575.234255053         3.894082617
       219          219.000000         0.267068650       892.418082252      -575.501042223      -575.233973573         3.890073098
       220          220.000000         0.269009249       898.902653979      -575.503161860      -575.234152611         3.862266330
       221          221.000000         0.272553499       910.745874211      -575.507154070      -575.234600572         3.840478160
       222          222.000000         0.272998914       912.234243729      -575.507470665      -575.234471751         3.840346403
       223          223.000000         0.271687366       907.851663355      -575.505854389      -575.234167024         3.842631792
       224          224.000000         0.272560854       910.770453085      -575.506717858      -575.234157004         3.837199472
       225          225.000000         0.275863615       921.806729884      -575.510259781      -575.234396166         3.843183532
       226          226.000000         0.277983272       928.889628661      -575.512710649      -575.234727377         3.879599386
       227          227.000000         0.274611757       917.623607348      -575.509204626      -575.234592869         3.861619875