      64
 i =        0, time =        0.000, E =      -575.3234885435
  C        13.3590000000        2.5210000000        2.6600000000
  F        13.9900000000        1.3970000000        3.1400000000
  F        13.8300000000        3.6490000000        3.3020000000
  F        13.5790000000        2.7030000000        1.3050000000
  O        11.9960000000        2.4280000000        2.9430000000
  C        11.4220000000        1.3080000000        2.3540000000
  F        11.5470000000        1.3300000000        0.9780000000
  F        12.0240000000        0.1800000000        2.8220000000
  C         9.9540000000        1.2940000000        2.7210000000
  F         9.3210000000        0.2210000000        2.1760000000
  F         9.8860000000        1.2000000000        4.1090000000
  C         9.2930000000        2.6080000000        2.3530000000
  F         9.4120000000        2.8130000000        0.9890000000
  F         9.9020000000        3.6700000000        2.9930000000
  O         7.9550000000        2.6310000000        2.7360000000
  C         7.4410000000        3.8500000000        2.3660000000
  F         8.0960000000        4.9140000000        2.9650000000
  F         7.6820000000        4.0080000000        0.9940000000
  C         5.9470000000        3.9760000000        2.5240000000
  O         5.5120000000        3.8010000000        3.8090000000
  C         4.1500000000        3.9100000000        3.9950000000
  C         3.3630000000        2.9050000000        3.1980000000
  C         1.8740000000        3.0810000000        3.4770000000
  O         1.5430000000        2.8640000000        4.7980000000
  O         3.6990000000        1.6030000000        3.5310000000
  H         5.4660000000        3.2640000000        1.8210000000
  H         5.6820000000        5.0000000000        2.1890000000
  H         3.9340000000        3.7120000000        5.0600000000
  H         3.7600000000        4.9230000000        3.7790000000
  H         3.4640000000        3.0290000000        2.1010000000
  H         1.5190000000        4.0870000000        3.1670000000
  H         1.3020000000        2.3700000000        2.8350000000
  H         1.4230000000        1.9010000000        5.0210000000
  H         4.6430000000        1.4670000000        3.2570000000
  O         6.8740000000        1.9820000000        4.9730000000
  H         7.7990000000        1.6580000000        4.9630000000
  H         6.2690000000        1.1950000000        4.9880000000
  O         9.1600000000       -0.0230000000       -0.0020000000
  H        10.1400000000       -0.0400000000       -0.0070000000
  H         8.8660000000        0.9240000000       -0.0010000000
  O        12.7380000000        2.5490000000        4.9980000000
  H        13.6980000000        2.3760000000        5.0860000000
  H        12.2640000000        1.6770000000        4.9940000000
  O         6.6780000000       -0.0190000000        1.7520000000
  H         5.7200000000        0.1640000000        1.8480000000
  H         7.1580000000        0.8490000000        1.7190000000
  O         6.0760000000        2.2440000000       -0.0330000000
  H         7.0540000000        2.1710000000       -0.0350000000
  H         5.6960000000        1.3280000000       -0.0180000000
  O        12.4800000000        4.3690000000        0.3690000000
  H        13.3830000000        4.4610000000        0.0000000000
  H        12.0620000000        3.5640000000       -0.0320000000
  O         9.5150000000        5.0210000000        0.3350000000
  H         9.5950000000        5.0490000000        1.3110000000
  H        10.4280000000        5.0350000000       -0.0520000000
  O         0.9670000000        3.6680000000        0.8940000000
  H         1.5030000000        4.3800000000        0.4870000000
  H         0.0330000000        3.9920000000        0.9760000000
  O         7.5170000000        4.0840000000        4.9900000000
  H         7.1490000000        4.9930000000        4.9910000000
  H         8.5070000000        4.1500000000        4.9890000000
  O         2.1820000000        1.6930000000        0.3470000000
  H         2.7770000000        0.9350000000        0.1700000000
  H         2.6200000000        2.5170000000        0.0080000000
      64
 i =        1, time =        1.000, E =      -575.3207018365
  C        13.3662158246        2.5169562556        2.6586479793
  F        13.9919025845        1.3955039088        3.1377660001
  F        13.8281983522        3.6460878709        3.2976813480
  F        13.5865462821        2.6969350520        1.3080980992
  O        12.0032813936        2.4246816642        2.9431580549
  C        11.4250211533        1.3046378700        2.3604138997
  F        11.5464901982        1.3271221374        0.9811445742
  F        12.0177530183        0.1752756323        2.8188380058
  C         9.9478810803        1.2982346087        2.7169215695
  F         9.3201001534        0.2288204323        2.1738237794
  F         9.8842073486        1.2061225910        4.1062832990
  C         9.2958365869        2.6067875700        2.3587612134
  F         9.4121923177        2.8137739303        0.9844932961
  F         9.8992676182        3.6686637976        2.9963476326
  O         7.9544937526        2.6381344553        2.7359436490
  C         7.4493496092        3.8534853769        2.3668888922
  F         8.0952075365        4.9085529647        2.9685818668
  F         7.6797277430        4.0095237419        0.9955405194
  C         5.9490576400        3.9761244801        2.5224923532
  O         5.5090593583        3.8044783215        3.8112012120
  C         4.1518875078        3.9094916136        4.0049278777
  C         3.3567253303        2.9054891688        3.1954423647
  C         1.8803741045        3.0807358364        3.4734303492
  O         1.5308663015        2.8625948336        4.7992837356
  O         3.6946715818        1.6056116629        3.5281528185
  H         5.4924435031        3.2820118405        1.8429492937
  H         5.6918856419        4.9747296788        2.1957032020
  H         3.9409429796        3.7135437553        5.0602150291
  H         3.7328347926        4.9199902229        3.7888074790
  H         3.4430262298        3.0313055368        2.0960363811
  H         1.5190145603        4.1067942208        3.1844550685
  H         1.2929562270        2.3820966398        2.8525168368
  H         1.4585838776        1.9254938780        5.0382518401
  H         4.6448780585        1.4523745413        3.2478424918
  O         6.8811747489        1.9840518474        4.9701888925
  H         7.7745111419        1.6387544284        4.9666793239
  H         6.2452159551        1.2107726196        4.9812265011
  O         9.1576199627       -0.0155779756       -0.0005385997
  H        10.1368880892       -0.0429129594       -0.0082438622
  H         8.8453584494        0.9181166418        0.0003533462
  O        12.7383119206        2.5491105912        4.9920910208
  H        13.6858650064        2.3572125129        5.0793705514
  H        12.2588408919        1.6735506228        4.9897530225
  O         6.6786920076       -0.0216733046        1.7514022467
  H         5.6952844340        0.1375688210        1.8471443303
  H         7.1484858430        0.8364948726        1.7045393567
  O         6.0780023549        2.2446920624       -0.0417098714
  H         7.0581983890        2.1949447589       -0.0357854126
  H         5.6745266256        1.3274019064       -0.0250762769
  O        12.4819055465        4.3669611037        0.3697538991
  H        13.3891764766        4.4591291092       -0.0007374109
  H        12.0842758808        3.5512930058       -0.0116223265
  O         9.5173255067        5.0299718512        0.3386274968
  H         9.5980680856        5.0525138157        1.3109699789
  H        10.3992076168        5.0320208815       -0.0758375834
  O         0.9628393907        3.6642609063        0.8927932334
  H         1.5196768544        4.3766060920        0.4790668645
  H         0.0677938257        3.9843576810        0.9969333671
  O         7.5179908395        4.0836885112        4.9961033181
  H         7.1571124173        4.9833532472        4.9853518893
  H         8.4933700482        4.1641101619        5.0084162966
  O         2.1838647245        1.6881870454        0.3472382133
  H         2.7733967877        0.9406650959        0.1633020306
  H         2.6348143140        2.4974809844        0.0223216691
      64
 i =        2, time =        2.000, E =      -575.3174191783
  C        13.3736357512        2.5141241931        2.6574644008
  F        13.9942634588        1.3943135398        3.1350949409
  F        13.8265861475        3.6427188482        3.2926483100
  F        13.5947191930        2.6900573947        1.3121628837
  O        12.0103504499        2.4210713437        2.9416300033
  C        11.4285606548        1.3016424463        2.3665894332
  F        11.5456657262        1.3239993252        0.9843565554
  F        12.0109842871        0.1700737841        2.8155165801
  C         9.9415282949        1.3019109961        2.7139724239
  F         9.3195869521        0.2370465268        2.1725495291
  F         9.8828033447        1.2121103919        4.1036490034
  C         9.2978350980        2.6066956668        2.3640706315
  F         9.4134283694        2.8135072603        0.9805835971
  F         9.8973101055        3.6666868578        2.9997713980
  O         7.9548744825        2.6446531522        2.7357494373
  C         7.4560736780        3.8583143141        2.3669453307
  F         8.0942704592        4.9036618835        2.9712201684
  F         7.6762018175        4.0113025262        0.9975474570
  C         5.9510397050        3.9764365204        2.5209886017
  O         5.5065517386        3.8077270320        3.8140563047
  C         4.1523792047        3.9094199760        4.0146101789
  C         3.3497539294        2.9070177154        3.1922285709
  C         1.8857482534        3.0803415263        3.4688854730
  O         1.5183855250        2.8614419651        4.8019101359
  O         3.6914349420        1.6068879771        3.5251399408
  H         5.5175726659        3.2945972044        1.8577502759
  H         5.7023897439        4.9565386952        2.1965449354
  H         3.9497942385        3.7145871293        5.0620541606
  H         3.7089149814        4.9165901642        3.7978212258
  H         3.4236318951        3.0365817227        2.0935599070
  H         1.5240206080        4.1193544025        3.2054752328
  H         1.2879062689        2.3963222561        2.8678411644
  H         1.4965865758        1.9501338632        5.0513415419
  H         4.6357369321        1.4405528052        3.2446295180
  O         6.8870157580        1.9846373088        4.9676602242
  H         7.7526772947        1.6131838146        4.9715354851
  H         6.2334543875        1.2327673096        4.9755008694
  O         9.1551675887       -0.0081254025       -0.0001811294
  H        10.1269867766       -0.0408762085       -0.0110604944
  H         8.8334546497        0.9047272710       -0.0007316144
  O        12.7382344443        2.5485259064        4.9881133054
  H        13.6710347281        2.3359996676        5.0778759557
  H        12.2624566639        1.6806305370        4.9899991783
  O         6.6786641562       -0.0244540340        1.7508837736
  H         5.6851059445        0.1124439411        1.8457102910
  H         7.1309135312        0.8210400266        1.6929953356
  O         6.0795447246        2.2448396840       -0.0504046030
  H         7.0546919862        2.2162794596       -0.0382845133
  H         5.6651082383        1.3373510071       -0.0341394761
  O        12.4833065258        4.3654279578        0.3698146335
  H        13.3874417050        4.4552443004       -0.0006229767
  H        12.1120021516        3.5444597316        0.0099890231
  O         9.5201220324        5.0397672515        0.3416394746
  H         9.6067082798        5.0590915784        1.3041356058
  H        10.3717164128        5.0323630031       -0.0927328981
  O         0.9592816280        3.6611484616        0.8911422820
  H         1.5250597730        4.3687426417        0.4758022408
  H         0.0978932684        3.9826996988        1.0164196731
  O         7.5197121427        4.0839154725        5.0033893382
  H         7.1684903415        4.9738833586        4.9806507037
  H         8.4751231564        4.1826180589        5.0304155653
  O         2.1859816926        1.6831712707        0.3474463972
  H         2.7714581175        0.9473934469        0.1550993578
  H         2.6476031374        2.4702468276        0.0375136948
      64
 i =        3, time =        3.000, E =      -575.3202171741
  C        13.3811151529        2.5124852308        2.6564543340
  F        13.9971844701        1.3933606515        3.1320256186
  F        13.8251915465        3.6389327605        3.2869710932
  F        13.6034957549        2.6823737014        1.3170998585
  O        12.0171678289        2.4171357533        2.9384568979
  C        11.4323977017        1.2991324402        2.3723556056
  F        11.5445677538        1.3206268459        0.9875958811
  F        12.0037440565        0.1643390726        2.8121399248
  C         9.9353037404        1.3050101486        2.7122625700
  F         9.3193984306        0.2455360543        2.1721348320
  F         9.8817843255        1.2179340332        4.1011578842
  C         9.2988463844        2.6078813207        2.3687054274
  F         9.4157445518        2.8122180883        0.9773841760
  F         9.8962223556        3.6640957653        3.0032496443
  O         7.9561674743        2.6503517406        2.7354277446
  C         7.4609195630        3.8643526868        2.3662255528
  F         8.0932351023        4.8994091843        2.9730046157
  F         7.6715092690        4.0134964985        0.9999261176
  C         5.9534700001        3.9769828707        2.5202364866
  O         5.5045281245        3.8107958598        3.8175064557
  C         4.1513132610        3.9098769922        4.0236088471
  C         3.3423965698        2.9095560371        3.1885614056
  C         1.8898801778        3.0801970971        3.4639610775
  O         1.5056497440        2.8612833832        4.8055529327
  O         3.6891466943        1.6068015543        3.5219676744
  H         5.5364436191        3.2946647160        1.8591237436
  H         5.7116203035        4.9517935234        2.1896816560
  H         3.9596941425        3.7142291057        5.0681740214
  H         3.6898639278        4.9119207039        3.8065441526
  H         3.4068061646        3.0449251186        2.0932634611
  H         1.5346249835        4.1230229806        3.2292761813
  H         1.2850217286        2.4100942055        2.8776624817
  H         1.5367245370        1.9625589365        5.0633970103
  H         4.6166753571        1.4321104465        3.2467216744
  O         6.8911383294        1.9840180288        4.9653695799
  H         7.7415575276        1.5783105655        4.9775447224
  H         6.2322146411        1.2597061668        4.9709109901
  O         9.1525998105       -0.0011578030       -0.0009323939
  H        10.1131890338       -0.0334053029       -0.0154383943
  H         8.8285159147        0.8908539437       -0.0042373210
  O        12.7376400334        2.5474103866        4.9860694155
  H        13.6586026858        2.3124685090        5.0819469218
  H        12.2720654582        1.6956425252        4.9945351527
  O         6.6775130226       -0.0278517185        1.7504957781
  H         5.6922358024        0.0889290056        1.8433080445
  H         7.1090995212        0.8105418572        1.6838186796
  O         6.0804413131        2.2446276303       -0.0592233469
  H         7.0458338775        2.2338105769       -0.0424198505
  H         5.6683950028        1.3562235051       -0.0451194927
  O        12.4843316422        4.3646586642        0.3693312949
  H        13.3792416693        4.4500550584        0.0003133918
  H        12.1418302558        3.5384478946        0.0307363132
  O         9.5227914338        5.0503931544        0.3440073626
  H         9.6218594129        5.0686075841        1.2942879346
  H        10.3535383881        5.0357948343       -0.1058775304
  O         0.9573148085        3.6583471890        0.8888507952
  H         1.5184144908        4.3555492908        0.4777742788
  H         0.1084493397        3.9927974548        1.0368211279
  O         7.5218238183        4.0844004774        5.0118378068
  H         7.1794498375        4.9699000083        4.9768056579
  H         8.4609941798        4.2047638302        5.0550433173
  O         2.1880345691        1.6777588280        0.3477922759
  H         2.7733251505        0.9504755829        0.1449595110
  H         2.6613376581        2.4432725723        0.0510994553
      64
 i =        4, time =        4.000, E =      -575.3308586861
  C        13.3885084527        2.5119580934        2.6556236000
  F        14.0007648717        1.3925885399        3.1285956387
  F        13.8240487647        3.6348022837        3.2807452508
  F        13.6127967555        2.6737473731        1.3228146751
  O        12.0237144833        2.4128761961        2.9337130125
  C        11.4362895033        1.2971874533        2.3775496229
  F        11.5432399754        1.3169974649        0.9908143087
  F        11.9961943497        0.1580433643        2.8088109152
  C         9.9295679617        1.3075814081        2.7118689423
  F         9.3194896062        0.2541429236        2.1725221735
  F         9.8811375796        1.2235838690        4.0988900415
  C         9.2987730468        2.6104118409        2.3724923452
  F         9.4191695029        2.8099561153        0.9749669798
  F         9.8960840379        3.6609408498        3.0067579695
  O         7.9583491830        2.6551016984        2.7349677982
  C         7.4637062754        3.8714087685        2.3648108502
  F         8.0921371931        4.8958837518        2.9740239013
  F         7.6657545508        4.0162627158        1.0025718147
  C         5.9564875147        3.9778084031        2.5205196541
  O         5.5030205534        3.8137427620        3.8214425524
  C         4.1486038234        3.9108629174        4.0316464888
  C         3.3349655401        2.9129939206        3.1847062579
  C         1.8926410426        3.0805029608        3.4592611837
  O         1.4927481021        2.8623972379        4.8099529088
  O         3.6873639440        1.6054497357        3.5187122686
  H         5.5472137281        3.2800043066        1.8454476738
  H         5.7186802783        4.9619296577        2.1749166466
  H         3.9698945457        3.7119086218        5.0797694625
  H         3.6767651550        4.9059194387        3.8153585511
  H         3.3934493271        3.0563072586        2.0942819303
  H         1.5503311112        4.1186791423        3.2543988135
  H         1.2822952481        2.4209640554        2.8791880720
  H         1.5798210715        1.9573505319        5.0762523597
  H         4.5935003474        1.4265321900        3.2520666119
  O         6.8938937246        1.9824796970        4.9632652618
  H         7.7412757275        1.5345567136        4.9847329989
  H         6.2360261292        1.2866198493        4.9675387993
  O         9.1498124220        0.0047187755       -0.0027707715
  H        10.1005801101       -0.0206526910       -0.0214029401
  H         8.8273502277        0.8853636353       -0.0101286344
  O        12.7366725868        2.5461686365        4.9859510703
  H        13.6519671792        2.2872487645        5.0918044445
  H        12.2821479815        1.7116998889        5.0030721777
  O         6.6752639772       -0.0323368603        1.7502564890
  H         5.7127594701        0.0676577534        1.8402039828
  H         7.0868348059        0.8119946578        1.6763383071
  O         6.0805726238        2.2445321738       -0.0683267127
  H         7.0361214948        2.2469878619       -0.0480649151
  H         5.6818818101        1.3772564186       -0.0578708495
  O        12.4849529995        4.3649141878        0.3685112365
  H        13.3688135825        4.4448351360        0.0010308534
  H        12.1701803903        3.5275114220        0.0486814443
  O         9.5249465225        5.0618763465        0.3456048734
  H         9.6441942192        5.0808933163        1.2865639243
  H        10.3498098847        5.0419615687       -0.1179927782
  O         0.9568758224        3.6555906886        0.8859606339
  H         1.5027576046        4.3402441417        0.4830000875
  H         0.0975657101        4.0155110102        1.0592882547
  O         7.5240286326        4.0849937654        5.0214076359
  H         7.1870606351        4.9746258555        4.9736147192
  H         8.4583502607        4.2298121267        5.0825708628
  O         2.1897823930        1.6716438840        0.3484064639
  H         2.7796181562        0.9470131028        0.1328729491
  H         2.6793150446        2.4245460830        0.0607480992
      64
 i =        5, time =        5.000, E =      -575.3410651227
  C        13.3956743261        2.5123964400        2.6549831893
  F        14.0050945576        1.3919602105        3.1248421587
  F        13.8232017213        3.6304265691        3.2740868606
  F        13.6224975394        2.6642735772        1.3292031318
  O        12.0299848308        2.4083283936        2.9275015795
  C        11.4399942749        1.2958417969        2.3820288064
  F        11.5417196383        1.3131041549        0.9939561826
  F        11.9884864184        0.1511754185        2.8056023436
  C         9.9246525611        1.3097410402        2.7128271792
  F         9.3198284138        0.2627185306        2.1736441751
  F         9.8808462889        1.2290581479        4.0969273832
  C         9.2975806771        2.6142550246        2.3753148234
  F         9.4236871197        2.8068076307        0.9733628696
  F         9.8969526066        3.6573001356        3.0102731658
  O         7.9613512952        2.6588573536        2.7343448265
  C         7.4643292555        3.8792413264        2.3628035233
  F         8.0910027740        4.8931769330        2.9743594283
  F         7.6590597464        4.0196257285        1.0053594795
  C         5.9597624758        3.9788899737        2.5214909085
  O         5.5020418365        3.8166306691        3.8257191505
  C         4.1442525868        3.9122664899        4.0386665932
  C         3.3277653175        2.9171531000        3.1809576362
  C         1.8939453657        3.0811909907        3.4552864056
  O         1.4798366094        2.8643280262        4.8150245300
  O         3.6854256033        1.6030384499        3.5155008847
  H         5.5519161271        3.2550151393        1.8212567167
  H         5.7238876122        4.9825140593        2.1540468794
  H         3.9798845489        3.7075480809        5.0959094894
  H         3.6699973600        4.8994523842        3.8244717317
  H         3.3842785550        3.0705624671        2.0954747191
  H         1.5695809318        4.1097057564        3.2789039087
  H         1.2784982176        2.4276538545        2.8710649989
  H         1.6261642251        1.9409081602        5.0885971221
  H         4.5754073596        1.4223789715        3.2576318729
  O         6.8962730231        1.9801963381        4.9613246753
  H         7.7443654720        1.4864326476        4.9929484620
  H         6.2368249875        1.3063859005        4.9654253784
  O         9.1466484298        0.0091255492       -0.0056522658
  H        10.0942273803       -0.0031223935       -0.0290167531
  H         8.8273882872        0.8940640984       -0.0183977175
  O        12.7357552093        2.5452628423        4.9877523596
  H        13.6509947890        2.2618095974        5.1072609253
  H        12.2861761127        1.7201744494        5.0153953597
  O         6.6725284260       -0.0380181170        1.7501192612
  H         5.7361231212        0.0493971493        1.8373215086
  H         7.0652828051        0.8266399017        1.6703004160
  O         6.0799553363        2.2452407954       -0.0777649172
  H         7.0303362017        2.2559222918       -0.0550937071
  H         5.7006496033        1.3898197175       -0.0722557903
  O        12.4849845708        4.3662611728        0.3675091253
  H        13.3616111997        4.4410727083       -0.0000495066
  H        12.1948743356        3.5087016047        0.0633048996
  O         9.5266236071        5.0742448325        0.3462475836
  H         9.6740197892        5.0957649642        1.2846737653
  H        10.3596292859        5.0505845283       -0.1290788542
  O         0.9567823761        3.6527871660        0.8828311229
  H         1.4841693376        4.3295296351        0.4873119940
  H         0.0780100916        4.0454166348        1.0821763965
  O         7.5263149702        4.0858542013        5.0320523496
  H         7.1904178048        4.9868420347        4.9710038562
  H         8.4681109617        4.2566560607        5.1131612989
  O         2.1912761859        1.6646271071        0.3492600952
  H         2.7886759682        0.9373258654        0.1195560456
  H         2.7024762410        2.4172263887        0.0659253453
      64
 i =        6, time =        6.000, E =      -575.3491686464
  C        13.4024770144        2.5135872116        2.6545515825
  F        14.0102455694        1.3914622447        3.1208037117
  F        13.8226986498        3.6259456158        3.2670932385
  F        13.6330741461        2.6540980836        1.3361493077
  O        12.0359800041        2.4035537093        2.9199532002
  C        11.4432890598        1.2950839010        2.3856782755
  F        11.5400413265        1.3089434451        0.9969782208
  F        11.9807230480        0.1437351616        2.8025624480
  C         9.9208378780        1.3116661553        2.7151294485
  F         9.3203866016        0.2711287264        2.1754306532
  F         9.8808934654        1.2343561070        4.0953567705
  C         9.2953078892        2.6192771701        2.3771152547
  F         9.4292057988        2.8028986661        0.9725686320
  F         9.8988560614        3.6532813795        3.0137722943
  O         7.9650637353        2.6616471993        2.7335250292
  C         7.4627600915        3.8875772841        2.3603237116
  F         8.0898460935        4.8913753713        2.9740809591
  F         7.6515804797        4.0235671349        1.0081746444
  C         5.9627220140        3.9801786498        2.5224539540
  O         5.5015847947        3.8195063232        3.8301743147
  C         4.1383594569        3.9138764027        4.0448089599
  C         3.3210799093        2.9218168331        3.1775955682
  C         1.8936844984        3.0819114243        3.4523624055
  O         1.4671608876        2.8662494634        4.8207685791
  O         3.6827147532        1.5998111176        3.5124376617
  H         5.5544488477        3.2276942560        1.7943658623
  H         5.7282090261        5.0058055442        2.1301832063
  H         3.9893363535        3.7015293339        5.1138323510
  H         3.6692118167        4.8941912319        3.8339116376
  H         3.3797584057        3.0873773486        2.0958489025
  H         1.5900374850        4.1014018977        3.3006987833
  H         1.2738380717        2.4306829371        2.8539380684
  H         1.6741856867        1.9257881861        5.0974042719
  H         4.5708206465        1.4181915967        3.2607116632
  O         6.8992693947        1.9771490871        4.9595419761
  H         7.7419775374        1.4398487018        5.0018096274
  H         6.2279136078        1.3137281822        4.9645724290
  O         9.1429728448        0.0121797983       -0.0095281566
  H        10.0961902218        0.0186121718       -0.0383190973
  H         8.8285748899        0.9153420833       -0.0290023223
  O        12.7353483754        2.5448803128        4.9914745783
  H        13.6524607030        2.2382175882        5.1276860591
  H        12.2800095510        1.7161715202        5.0313897615
  O         6.6703396431       -0.0445622800        1.7499723656
  H         5.7480314943        0.0347646000        1.8359740037
  H         7.0426212079        0.8488382995        1.6661373948
  O         6.0787217380        2.2473449610       -0.0875125995
  H         7.0311830191        2.2611710116       -0.0634508193
  H         5.7201084608        1.3844384076       -0.0882697441
  O        12.4842112037        4.3684576879        0.3663319059
  H        13.3614741530        4.4399601901       -0.0040349126
  H        12.2158351407        3.4841991016        0.0759570852
  O         9.5282354749        5.0874775482        0.3458640053
  H         9.7108610957        5.1130077859        1.2882448378
  H        10.3770307017        5.0615501578       -0.1365701421
  O         0.9556723058        3.6499361166        0.8799246427
  H         1.4691093337        4.3305733445        0.4861942903
  H         0.0649973952        4.0752099979        1.1025941460
  O         7.5289979598        4.0874321159        5.0437450866
  H         7.1905386937        5.0015260488        4.9691975436
  H         8.4841878412        4.2834757752        5.1464703994
  O         2.1929040649        1.6567745614        0.3501436777
  H         2.7972756066        0.9243037383        0.1062920936
  H         2.7279667487        2.4177486955        0.0684007730
      64
 i =        7, time =        7.000, E =      -575.3587450127
  C        13.4088024954        2.5152552710        2.6543511149
  F        14.0162462331        1.3911054885        3.1165329765
  F        13.8225844546        3.6215192136        3.2598011324
  F        13.6446377854        2.6432351404        1.3434722254