68
Lattice="23.838 0.0 0.0 0.0 15.018 0.0 0.0 0.0 17.951" Properties=species:S:1:pos:R:3:forces:R:3 energy=-21947.48334148358 pbc="T T T"
C       14.35000000       3.10900000       2.48200000       0.53422627       0.93628543       0.28517450
F       15.00800000       2.01400000       2.99400000       0.45297212       1.65187091      -0.75004256
F       14.61000000       4.22800000       3.24800000       0.50238534      -1.19033464      -0.92444613
F       14.75100000       3.39800000       1.18900000      -0.25959878      -0.26330167       1.15328918
O       12.97500000       2.87800000       2.54700000       0.84977065       0.02360993      -0.77561081
C       12.60600000       1.75300000       1.81800000       0.89310518      -0.28127245      -0.57384071
F       12.93100000       1.87900000       0.48100000       0.37674035      -0.49167752       0.32651882
F       13.23700000       0.65400000       2.31300000      -0.86332257      -0.55770898       0.13162867
C       11.10800000       1.58800000       1.95300000      -0.75987028      -0.50313251       1.53580581
F       10.66900000       0.50200000       1.26100000       0.38852611       0.48821527      -0.02737439
F       10.84400000       1.39500000       3.30800000       0.07433032      -0.22609380      -1.15798490
C       10.38600000       2.86100000       1.55700000      -0.35728032       1.37531615      -0.45593450
F       10.68600000       3.16600000       0.24000000       1.93329542      -1.10608179       0.78674393
F       10.78800000       3.92600000       2.33900000       1.79410546      -0.85586869      -0.40931748
O        9.01000000       2.74100000       1.73000000       0.49751150      -0.45254829       0.00616971
C        8.44200000       3.93300000       1.35000000      -0.60721117       1.54461956      -0.98956098
F        8.89500000       5.00800000       2.09700000      -0.92325910       0.11263627      -0.15706942
F        8.86700000       4.20200000       0.04200000      -2.12874839       0.85494565       0.09325931
C        6.93500000       3.91700000       1.28200000      -0.53279876       0.52517254      -1.28982315
O        6.33300000       3.61900000       2.47400000       0.56513307       0.11838471       0.85621421
C        4.95400000       3.59700000       2.45300000      -1.57447737       0.43544823       0.13013730
C        4.39500000       2.58200000       1.49300000      -1.17652653       1.08586019      -1.21760261
C        2.87100000       2.60900000       1.54800000      -0.25366276      -0.52392255      -2.16239345
O        2.37000000       2.27600000       2.78900000      -1.23852673      -1.05209027       1.94417605
O        4.80200000       1.29400000       1.80500000       1.47508954      -1.67726701      -0.15034735
H        6.63500000       3.21400000       0.47800000       0.30138196       0.11744459      -0.02442361
H        6.62600000       4.93400000       0.96500000       0.28547705      -0.07103926      -0.28419879
H        4.60200000       3.31000000       3.46100000       0.35509463       0.34878757      -0.24075163
H        4.50500000       4.58400000       2.23300000       0.17195666       0.10774776      -0.07531848
H        4.64600000       2.78700000       0.43200000       0.02664356       0.30206473       0.18129709
H        2.47100000       3.59800000       1.24000000       0.25473772      -0.17449055       0.34023643
H        2.47200000       1.89400000       0.78900000       0.32651046       0.32207163       0.10989774
H        2.31200000       1.29300000       2.94000000       0.27872087       1.14334856      -0.55572936
H        5.78400000       1.26000000       1.67200000      -0.77293555      -0.17805873       0.20351690
C       13.11000000       2.54100000       5.70400000       0.28630833       0.71151869      -0.57967807
F       13.80700000       2.63900000       6.88600000       0.13432969       0.24560631      -1.59041351
F       13.29200000       3.67900000       4.94300000      -0.24215665      -1.26051199       2.34556028
F       13.53200000       1.46700000       4.93900000      -0.26435964       1.04057561       1.42071850
O       11.74700000       2.45500000       5.99200000       0.78357710      -0.42555131      -0.39147653
C       11.45500000       1.34400000       6.77600000       0.91582210      -0.59889578       0.04413612
F       11.81100000       0.16500000       6.15000000       0.28288852       0.27441774       0.83217356
F       12.12700000       1.42300000       7.95700000      -1.00329216      -0.78514176       0.37118379
C        9.96400000       1.34100000       7.03400000      -0.77599581       1.17998636       0.98464345
F        9.60000000       0.27700000       7.79900000       0.04779490       0.00596350      -0.37101044
F        9.67300000       2.51400000       7.72700000       0.16330299      -0.82159339       0.30474816
C        9.19100000       1.41400000       5.73200000      -0.49914546       0.12670384      -1.45641191
F        9.51100000       0.32000000       4.94800000       0.87830601       0.27818376       1.70298274
F        9.51600000       2.55300000       5.02100000       0.39938856      -0.37173026       1.58209946
O        7.81800000       1.46900000       5.95800000       0.55009927       0.07375861       0.71154259
C        7.20200000       1.53300000       4.73100000      -0.91874250      -0.08457395      -1.75467229
F        7.57900000       2.64600000       3.99700000      -1.59327445      -0.83904941       1.73807305
F        7.65000000       0.43900000       3.97900000      -2.10890011       0.05479010      -0.73076465
C        5.70000000       1.39700000       4.77500000      -0.22880109      -1.20127278      -0.86364078
O        5.08100000       2.36500000       5.51800000       1.82042596       1.59665285       1.35928681
C        3.70600000       2.27600000       5.58000000      -1.91159221       0.23886702      -0.04148172
C        3.22600000       0.98300000       6.18300000      -1.02927130      -0.57499388      -1.19791960
C        1.70100000       0.97700000       6.23400000      -0.19590333      -2.07884398      -0.11326722
O        1.18300000       1.98100000       7.02400000      -0.66030857       1.58408119       1.62605341
O        3.68700000       0.81300000       7.47800000       1.68811254      -0.29646006       1.55667628
H        5.45900000       0.37600000       5.13800000       0.28680187       0.07362197      -0.09965582
H        5.34900000       1.46700000       3.72500000       0.32446208      -0.47963364       0.27422114
H        3.34100000       3.08800000       6.23400000       0.26975749      -0.09485594      -0.09057188
H        3.21400000       2.41800000       4.59900000       0.28894632      -0.02019461       0.14596260
H        3.49600000       0.08700000       5.58800000       0.01775931       0.25435488      -0.27029358
H        1.26100000       1.04000000       5.21600000       0.21524459       0.28650874       0.26455477
H        1.36000000      -0.01000000       6.62800000       0.31690422       0.19617672      -0.27947642
H        1.17000000       1.75400000       7.99300000       0.31150005      -0.01506252      -1.29446014
H        4.67400000       0.72100000       7.42500000      -0.90207362       0.24492607       0.26969303
68
Lattice="23.838 0.0 0.0 0.0 15.018 0.0 0.0 0.0 17.951" Properties=species:S:1:pos:R:3:forces:R:3 energy=-21947.406992265856 pbc="T T T"
C       14.35766792       3.10505163       2.48083629       0.37293072       0.99377411       0.27129543
F       15.01028997       2.01301175       2.99197143       0.52486238       1.51063133      -0.69333082
F       14.60874074       4.22530888       3.24400723       0.54563412      -1.11822915      -0.86511873
F       14.75857430       3.39259406       1.19196735      -0.15341814      -0.24241999       1.00047123
O       12.98301431       2.87509559       2.54789779       0.75532075      -0.03959595      -0.72954308
C       12.60947963       1.74971393       1.82429140       0.61907244      -0.11789768      -0.79035853
F       12.93123919       1.87640764       0.48428771       0.34776336      -0.43425180       0.28546242
F       13.23122920       0.64963320       2.31015963      -0.60392869      -0.67088465       0.33621478
C       11.10239694       1.59249404       1.94922917      -0.31789481      -0.59107584       1.71752540
F       10.66845409       0.50988304       1.25851675       0.30761719       0.26495990      -0.14690732
F       10.84253185       1.40130333       3.30514827      -0.13151073      -0.23315211      -1.08683252
C       10.38946507       2.86017130       1.56275395      -0.58969346       1.65396697      -0.78965848
F       10.68665117       3.16725760       0.23565891       1.90390071      -1.15907067       1.01842035
F       10.78589395       3.92504116       2.34230917       1.95571664      -0.89604059      -0.43917881
O        9.00972540       2.74837322       1.73017179       0.66248833      -0.74365637       0.05610798
C        8.45115028       3.93663666       1.35105136      -1.08762715       1.51367243      -0.96056334
F        8.89455424       5.00266070       2.10114766      -0.85460833       0.37310528      -0.06506014
F        8.86534014       4.20391480       0.04341780      -1.98472092       0.90276199      -0.02526547
C        6.93763776       3.91749239       1.28052194       0.07333161       0.43878093      -0.25092733
O        6.33055786       3.62287264       2.47625175       0.69168912       0.22129703       0.81390725
C        4.95628799       3.59678361       2.46290104      -1.83252573       0.65500514      -0.50429394
C        4.38927932       2.58269533       1.49050371      -0.84031362       1.15882112      -0.97528656
C        2.87799112       2.60908387       1.54445375      -0.80268715       0.12576266      -1.48870293
O        2.35830099       2.27477544       2.79021400      -1.14825828       0.03494823       1.58255803
O        4.79817707       1.29693427       1.80232517       1.73936113      -1.85712344      -0.22375407
H        6.66107697       3.23154833       0.49981901      -0.06940113      -0.61756617      -0.77985540
H        6.63631193       4.90928156       0.97209424       0.04346298       0.74883931      -0.53542415
H        4.60974638       3.31320387       3.46085543       0.24558181       0.20184204       0.07748060
H        4.47874714       4.58131153       2.24314660       0.38889387      -0.05939122      -0.01684916
H        4.62554013       2.78962119       0.42707250       0.13644822       0.33154078       0.18053997
H        2.47104153       3.61863930       1.25730599       0.44146063      -0.61037549       0.35161233
H        2.46265383       1.90583050       0.80662404       0.23316588       0.06978192      -0.28842374
H        2.34722212       1.31752080       2.95757789       0.21494354       0.06434583      -0.42559864
H        5.78624531       1.24427065       1.66149955      -1.11360059      -0.05964629       0.24873961
C       13.11919475       2.54480527       5.70056846      -0.27514908       0.60447379      -0.37246145
F       13.80242719       2.63504925       6.88614499       0.30599840       0.27443178      -1.46389308
F       13.28552661       3.68192217       4.94179725      -0.15997169      -1.06323796       2.25966947
F       13.53024855       1.47411332       4.94129086      -0.18595331       0.87243394       1.26882340
O       11.74742304       2.45375544       5.99164029       0.75816148      -0.38731934      -0.37444124
C       11.44841375       1.34363795       6.77663146       1.27589624      -0.52316290      -0.17101421
F       11.81185188       0.16566508       6.14409173       0.11965985       0.20855041       0.99209627
F       12.12489445       1.41886081       7.95490955      -1.10624978      -0.81564115       0.40223631
C        9.96116023       1.33937398       7.03241399      -0.83964808       1.12644180       0.93888317
F        9.60110992       0.27472336       7.79846659       0.01360604      -0.06388565      -0.40884028
F        9.66687864       2.50764161       7.72669734       0.17810140      -0.77397730       0.18692911
C        9.18962118       1.41171072       5.72670988      -0.44745634       0.23343425      -1.35475418
F        9.51360546       0.32113452       4.94059819       0.83697604       0.39800940       1.72467766
F        9.51798706       2.55854276       5.02128238       0.29001036      -0.52033235       1.54560051
O        7.81191860       1.46806844       5.95656822       0.85582620       0.03492420       0.74844488
C        7.20477275       1.53072242       4.73176093      -1.09050540       0.03708511      -1.85715639
F        7.58084167       2.64565946       3.99715379      -1.48161312      -0.85870510       1.67731395
F        7.65384420       0.43525662       3.98304441      -2.30067841       0.11994469      -0.76985038
C        5.70252941       1.40658798       4.77936915      -0.19528839      -1.76746700      -0.74186020
O        5.08191428       2.36604076       5.51923296       1.49982833       1.69433186       1.51495838
C        3.69794168       2.27484741       5.57182571      -1.35671783      -0.10898028       0.08086614
C        3.22172809       0.97838342       6.18143437      -0.45079408      -0.64919781      -1.10572996
C        1.70689730       0.97527443       6.23129157      -0.90417606      -2.37216916      -0.18201233
O        1.19028300       1.97964373       7.02990556      -0.66998690       1.60060478       1.60800141
O        3.68850376       0.81248550       7.48406782       1.95035732      -0.20932491       1.42668466
H        5.46581275       0.36918631       5.13165013       0.30787232       0.35628757      -0.11914410
H        5.34270118       1.47637646       3.74431482       0.30313826      -0.47144339      -0.10748534
H        3.35055579       3.06995662       6.23598573       0.07034139       0.21013984       0.06257030
H        3.21257090       2.42111049       4.59374078       0.22719522       0.00529915       0.04426802
H        3.51284527       0.07524404       5.59989129      -0.10675484       0.37883399      -0.26645123
H        1.24686805       1.05677683       5.19499826       0.53084338       0.10933002       0.94682565
H        1.36361529      -0.02258585       6.64861956       0.41465163       0.62254502      -0.61252576
H        1.15954874       1.76665363       8.00757301       0.38899536      -0.09367296      -1.55969022
H        4.69017044       0.73422793       7.45284154      -1.43568992       0.27893750       0.09985440
68
Lattice="23.838 0.0 0.0 0.0 15.018 0.0 0.0 0.0 17.951" Properties=species:S:1:pos:R:3:forces:R:3 energy=-21947.306464234825 pbc="T T T"
C       14.36563543       3.10190159       2.47989051       0.20107547       1.01304722       0.24300111
F       15.01284649       2.01279068       2.98959075       0.60829479       1.36399904      -0.62696539
F       14.60775859       4.22204985       3.23957510       0.57834404      -1.03600994      -0.81062670
F       14.76607069       3.38706501       1.19544281       0.61971574      -0.28270843       0.88234354
O       12.99148412       2.87216730       2.54835563       0.64249234      -0.07358772      -0.69667054
C       12.61345657       1.74633316       1.82994789       0.31864347       0.04668178      -0.97873560
F       12.93165499       1.87359473       0.48772040       0.30772116      -0.39193262       0.24494259
F       13.22515168       0.64492569       2.30749000      -0.36551432      -0.82494322       0.45289268
C       11.09653851       1.59651324       1.94683808       0.13908788      -0.62910527       1.82933287
F       10.66806441       0.51790064       1.25595888       0.23866289       0.02771855      -0.26632903
F       10.84099691       1.40748825       3.30174458      -0.31696395      -0.23479863      -0.96030611
C       10.39245643       2.86067128       1.56787355      -0.78214546       1.83511075      -1.07342343
F       10.68826926       3.16792655       0.23183503       1.84179855      -1.16376945       1.18867723
F       10.78478114       3.92362725       2.34539531       2.03792357      -0.88852363      -0.43275797
O        9.00985032       2.75529798       1.73037741       0.79179277      -0.98097488       0.08127985
C        8.45942684       3.94148930       1.35133107      -1.53868685       1.41349263      -0.90902464
F        8.89367446       4.99751088       2.10526229      -0.82468345       0.61903321       0.04101097
F        8.86267232       4.20628807       0.04482277      -1.80354673       0.95804336      -0.14563445
C        6.94033443       3.91833726       1.27884231       0.56205297       0.37155331       0.66969460
O        6.32853284       3.62687874       2.47899433       0.79959470       0.32063633       0.68914666
C        4.95710385       3.59709340       2.47239698      -1.96931521       0.82314521      -1.11748778
C        4.38288360       2.58432157       1.48722395      -0.46488691       1.14107441      -0.66002464
C        2.88433743       2.60926876       1.53971157      -1.24403123       0.64976384      -0.70599161
O        2.34590951       2.27357196       2.79238237      -0.98647921       1.17081336       1.10767314
O        4.79540307       1.29874860       1.79951540       1.51106603      -1.91578805      -0.25134343
H        6.68648959       3.24318499       0.51417284      -0.38031699      -1.24641250      -1.40565240
H        6.64703991       4.89173141       0.97406312      -0.17897021       1.41939612      -0.73383141
H        4.61984359       3.31833988       3.46145254       0.10481725       0.03828706       0.42919030
H        4.45621699       4.57805454       2.25313192       0.55691128      -0.15298875       0.02350415
H        4.60638642       2.79541606       0.42387323       0.25039259       0.34833684       0.13744078
H        2.47530895       3.63343577       1.27797779       0.52894243      -0.84011468       0.28056243
H        2.45553964       1.91832898       0.82148713       0.09117777      -0.21376846      -0.69057107
H        2.38450179       1.34265756       2.97108172       0.24562152      -1.14019844      -0.19663716
H        5.77783064       1.22797033       1.65338016      -0.99052193       0.03259853       0.22055408
C       13.12816847       2.54909613       5.69683771      -0.81489933       0.48382137      -0.14210656
F       13.79800978       2.63123787       6.88554653       0.49044540       0.31488017      -1.31891613
F       13.27897197       3.68430437       4.94174210      -0.07706847      -0.87141176       2.14676570
F       13.52840266       1.48166971       4.94422611      -0.13199674       0.72033329       1.09076505
O       11.74830329       2.45227730       5.99105477       0.69832034      -0.33906883      -0.34517413
C       11.44285246       1.34285563       6.77712553       1.55063983      -0.43909367      -0.36222858
F       11.81276453       0.16643607       6.13868730      -0.02336844       0.13356029       1.13367823
F       12.12222709       1.41430739       7.95302337      -1.15578962      -0.79871819       0.45021826
C        9.95764595       1.33865286       7.03158221      -0.85404204       1.03375613       0.82703561
F        9.60222676       0.27241428       7.79772554      -0.02687460      -0.12953990      -0.45043312
F        9.66084772       2.50089015       7.72648961       0.21908823      -0.64144392       0.13190995
C        9.18788291       1.40960896       5.72033145      -0.37482314       0.33073726      -1.15108706
F        9.51663599       0.32247118       4.93407227       0.76373657       0.47232542       1.73335716
F        9.52012140       2.56382126       5.02234971       0.18301046      -0.66138793       1.48164627
O        7.80635331       1.46715795       5.95558780       1.10250285      -0.00605975       0.71936433
C        7.20666947       1.52847463       4.73102995      -1.22581905       0.14216921      -1.87117721
F        7.58193088       2.64488281       3.99815942      -1.38350940      -0.85266481       1.57978785
F        7.65651998       0.43157416       3.98669784      -2.42672532       0.21272560      -0.84449858
C        5.70490194       1.41475610       4.78314234      -0.10062604      -2.16272745      -0.58801887
O        5.08373303       2.36810330       5.52137952       1.15375477       1.71744377       1.59784295
C        3.68879348       2.27360728       5.56371638      -0.74074921      -0.41306971       0.26279488
C        3.21709404       0.97324532       6.17898047       0.11577446      -0.64358533      -0.93330513
C        1.71206825       0.97164323       6.22843693      -1.41292439      -2.34512183      -0.08919979
O        1.19716196       1.97925271       7.03678083      -0.70592510       1.62664790       1.00758672
O        3.69118370       0.81184476       7.49099601       1.63759766      -0.09631564       1.24267049
H        5.47557262       0.36578319       5.12415975       0.28373152       0.50350424      -0.07800063
H        5.33930416       1.48124002       3.76260074       0.23350352      -0.43379820      -0.51891302
H        3.36078492       3.05392481       6.23857041      -0.12659460       0.48016600       0.20187338
H        3.21331663       2.42427171       4.58890533       0.13016418       0.04156240      -0.10111353
H        3.52866862       0.06711447       5.60923197      -0.20481531       0.44105548      -0.27325049
H        1.23781761       1.07460023       5.18306003       0.71524832      -0.05686381       1.31725209
H        1.37119985      -0.02921237       6.66337571       0.40981993       0.80157332      -0.81104779
H        1.15282116       1.77841057       8.00721584       0.42749514      -0.26512529      -1.22768024
H        4.69259769       0.75012600       7.48163893      -1.39584147       0.25643172      -0.07646670
68
Lattice="23.838 0.0 0.0 0.0 15.018 0.0 0.0 0.0 17.951" Properties=species:S:1:pos:R:3:forces:R:3 energy=-21947.31408687882 pbc="T T T"
C       14.37376447       3.09956536       2.47913995       0.02551704       0.98944939       0.20079089
F       15.01571195       2.01326234       2.98689166       0.69356894       1.20433577      -0.55046560
F       14.60707015       4.21826468       3.23473128       0.60979235      -0.94123181      -0.77477361
F       14.77388181       3.38139239       1.19936637       0.82086137      -0.33778518       0.83524104
O       13.00034139       2.86919464       2.54839333       0.52036864      -0.08710183      -0.68421108
C       12.61768949       1.74298988       1.83481813       0.01618017       0.20692703      -1.13153284
F       12.93222708       1.87058278       0.49127748       0.26485528      -0.37084284       0.20707904
F       13.21888853       0.63979922       2.30505039      -0.18625148      -1.02333370       0.48669147
C       11.09079182       1.60002707       1.94591655       0.57452093      -0.60611606       1.86257976
F       10.66779594       0.52593232       1.25326576       0.15066110      -0.19520055      -0.36437472
F       10.83930100       1.41355393       3.29785319      -0.49168902      -0.25256391      -0.81908904
C       10.39481946       2.86264545       1.57213084      -0.92236190       1.89644265      -1.29714465
F       10.69082273       3.16800446       0.22861484       1.74345713      -1.11986696       1.32689149
F       10.78470331       3.92176210       2.34826166       2.05746164      -0.82865944      -0.40144712
O        9.01045274       2.76163116       1.73063205       0.88405742      -1.14273320       0.07820334
C        8.46646733       3.94747744       1.35088053      -1.93046569       1.23258648      -0.83602620
F        8.89237585       4.99267545       2.10939774      -0.83904705       0.87487753       0.13859560
F        8.85908855       4.20914789       0.04615377      -1.59591080       1.02413007      -0.25465459
C        6.94348262       3.91948061       1.27770066       0.68273737       0.31473524       0.97479286
O        6.32699002       3.63107820       2.48215250       0.88760059       0.40711251       0.49969976
C        4.95633771       3.59806445       2.48099520      -1.99843532       0.86635659      -1.55710249
C        4.37611442       2.58686447       1.48341397      -0.06937518       1.04050356      -0.30572973
C        2.88968437       2.60997563       1.53440226      -1.60042995       0.89397373       0.00871116
O        2.33292313       2.27307454       2.79521873      -0.68652867       1.60419103       0.68175209
O        4.79354033       1.29940759       1.79655405       0.82498369      -1.83404072      -0.22186221
H        6.70826162       3.24289033       0.51507102      -0.49972245      -1.39826168      -1.50936878
H        6.65605469       4.88776846       0.96900738      -0.27522922       1.58275206      -0.77937592
H        4.63094417       3.32384239       3.46615809      -0.01479459      -0.09497027       0.66873687
H        4.43901787       4.57333306       2.26334222       0.65068618      -0.14234077       0.03789549
H        4.58962959       2.80454540       0.42198961       0.35506098       0.34794098       0.07595942
H        2.48463969       3.64019021       1.30133529       0.50141963      -0.82748474       0.14064642
H        2.44929826       1.92878116       0.82973972      -0.02535497      -0.40811756      -0.96742793
H        2.42413268       1.35687974       2.98270324       0.33444609      -1.67625403      -0.04132146
H        5.75993418       1.21198206       1.64737204      -0.42199581       0.07444543       0.11470492
C       13.13648755       2.55377565       5.69299280      -1.32091398       0.35670080       0.10546876
F       13.79384145       2.62758640       6.88427824       0.69963969       0.36862909      -1.17651767
F       13.27237819       3.68624401       4.94277720      -0.14626583      -0.68767367       2.01812818
F       13.52648973       1.48959193       4.94771532      -0.08844937       0.55951426       0.86770054
O       11.74960467       2.45059469       5.99026109       0.61319219      -0.28385308      -0.30205460
C       11.43853684       1.34172057       6.77732862       1.72016066      -0.34422688      -0.52879493
F       11.81366532       0.16727490       6.13385863      -0.13715489       0.06311167       1.21053863
F       12.11897274       1.40934833       7.95136585      -1.11117041      -0.70104307       0.51477143
C        9.95344560       1.33876219       7.03141481      -0.80786520       0.90515027       0.65244419
F        9.60332994       0.27003940       7.79675574      -0.07413470      -0.18748423      -0.49735516
F        9.65492808       2.49381292       7.72634887       0.25550563      -0.40375613       0.15259628
C        9.18584354       1.40777290       5.71302832      -0.29106622       0.42044311      -0.85452435
F        9.52005439       0.32404771       4.92842665       0.65027372       0.48379368       1.74332180
F        9.52234869       2.56876387       5.02416951       0.08466658      -0.76655854       1.38794211
O        7.80145289       1.46624380       5.95504120       1.29029814      -0.04594160       0.62163759
C        7.20758146       1.52634104       4.72879580      -1.31674346       0.23232596      -1.78868258
F        7.58231747       2.64367314       3.99996736      -1.32222611      -0.83803415       1.45278848
F        7.65796332       0.42799973       3.98992238      -2.48525323       0.26217263      -0.94457604
C        5.70719363       1.42118684       4.78644316       0.00008305      -2.34055269      -0.51294305
O        5.08624757       2.37120156       5.52448967       0.80583014       1.66011145       1.59104450
C        3.67905020       2.27203532       5.55581817      -0.16062339      -0.57003093       0.53722327
C        3.21255299       0.96759021       6.17577682       0.62531175      -0.53358549      -0.68987514
C        1.71610416       0.96612813       6.22551063      -1.66848992      -2.01579361       0.14403815
O        1.20361520       1.97984265       7.04426374      -0.69578526       1.65825506      -0.05715304
O        3.69485120       0.81114594       7.49867360       0.75631775       0.01117530       0.98154831
H        5.48804851       0.36719988       5.11592271       0.21364735       0.49314886       0.02001443
H        5.33814236       1.48195103       3.77591935       0.15997411      -0.37862601      -0.82421314
H        3.36980222       3.04248940       6.24308753      -0.27535087       0.61463463       0.24228921
H        3.21530836       2.42783078       4.58310195       0.02780711       0.07687594      -0.23584201
H        3.54253137       0.06320692       5.61595694      -0.26223488       0.42072558      -0.29755784
H        1.23561390       1.09187930       5.18373123       0.74884619      -0.19328934       1.35812101
H        1.38270742      -0.02816581       6.67036808       0.30014896       0.71813750      -0.85410907
H        1.15018578       1.78762959       7.99510667       0.41050261      -0.50930325      -0.34158551
H        4.68166322       0.76847876       7.50970435      -0.78287150       0.20572059      -0.22366004
68
Lattice="23.838 0.0 0.0 0.0 15.018 0.0 0.0 0.0 17.951" Properties=species:S:1:pos:R:3:forces:R:3 energy=-21947.443195246517 pbc="T T T"
C       14.38191401       3.09802399       2.47855069      -0.15228566       0.91945783       0.14668113
F       15.01892964       2.01434563       2.98391301       0.78193526       1.02755757      -0.46627167
F       14.60669141       4.21400150       3.22949399       0.65290167      -0.82314760      -0.74902879
F       14.78210981       3.37554821       1.20371411       0.92862478      -0.29409310       0.80279924
O       13.00951246       2.86616944       2.54801842       0.39579391      -0.10143284      -0.68721786
C       12.62193541       1.73981284       1.83877938      -0.26564240       0.35008079      -1.24022752
F       12.93293367       1.86738250       0.49493973       0.22670564      -0.37340619       0.17041032