      68
 i =        0, time =        0.000, E =      -806.5551362615
  C        14.3500000000        3.1090000000        2.4820000000
  F        15.0080000000        2.0140000000        2.9940000000
  F        14.6100000000        4.2280000000        3.2480000000
  F        14.7510000000        3.3980000000        1.1890000000
  O        12.9750000000        2.8780000000        2.5470000000
  C        12.6060000000        1.7530000000        1.8180000000
  F        12.9310000000        1.8790000000        0.4810000000
  F        13.2370000000        0.6540000000        2.3130000000
  C        11.1080000000        1.5880000000        1.9530000000
  F        10.6690000000        0.5020000000        1.2610000000
  F        10.8440000000        1.3950000000        3.3080000000
  C        10.3860000000        2.8610000000        1.5570000000
  F        10.6860000000        3.1660000000        0.2400000000
  F        10.7880000000        3.9260000000        2.3390000000
  O         9.0100000000        2.7410000000        1.7300000000
  C         8.4420000000        3.9330000000        1.3500000000
  F         8.8950000000        5.0080000000        2.0970000000
  F         8.8670000000        4.2020000000        0.0420000000
  C         6.9350000000        3.9170000000        1.2820000000
  O         6.3330000000        3.6190000000        2.4740000000
  C         4.9540000000        3.5970000000        2.4530000000
  C         4.3950000000        2.5820000000        1.4930000000
  C         2.8710000000        2.6090000000        1.5480000000
  O         2.3700000000        2.2760000000        2.7890000000
  O         4.8020000000        1.2940000000        1.8050000000
  H         6.6350000000        3.2140000000        0.4780000000
  H         6.6260000000        4.9340000000        0.9650000000
  H         4.6020000000        3.3100000000        3.4610000000
  H         4.5050000000        4.5840000000        2.2330000000
  H         4.6460000000        2.7870000000        0.4320000000
  H         2.4710000000        3.5980000000        1.2400000000
  H         2.4720000000        1.8940000000        0.7890000000
  H         2.3120000000        1.2930000000        2.9400000000
  H         5.7840000000        1.2600000000        1.6720000000
  C        13.1100000000        2.5410000000        5.7040000000
  F        13.8070000000        2.6390000000        6.8860000000
  F        13.2920000000        3.6790000000        4.9430000000
  F        13.5320000000        1.4670000000        4.9390000000
  O        11.7470000000        2.4550000000        5.9920000000
  C        11.4550000000        1.3440000000        6.7760000000
  F        11.8110000000        0.1650000000        6.1500000000
  F        12.1270000000        1.4230000000        7.9570000000
  C         9.9640000000        1.3410000000        7.0340000000
  F         9.6000000000        0.2770000000        7.7990000000
  F         9.6730000000        2.5140000000        7.7270000000
  C         9.1910000000        1.4140000000        5.7320000000
  F         9.5110000000        0.3200000000        4.9480000000
  F         9.5160000000        2.5530000000        5.0210000000
  O         7.8180000000        1.4690000000        5.9580000000
  C         7.2020000000        1.5330000000        4.7310000000
  F         7.5790000000        2.6460000000        3.9970000000
  F         7.6500000000        0.4390000000        3.9790000000
  C         5.7000000000        1.3970000000        4.7750000000
  O         5.0810000000        2.3650000000        5.5180000000
  C         3.7060000000        2.2760000000        5.5800000000
  C         3.2260000000        0.9830000000        6.1830000000
  C         1.7010000000        0.9770000000        6.2340000000
  O         1.1830000000        1.9810000000        7.0240000000
  O         3.6870000000        0.8130000000        7.4780000000
  H         5.4590000000        0.3760000000        5.1380000000
  H         5.3490000000        1.4670000000        3.7250000000
  H         3.3410000000        3.0880000000        6.2340000000
  H         3.2140000000        2.4180000000        4.5990000000
  H         3.4960000000        0.0870000000        5.5880000000
  H         1.2610000000        1.0400000000        5.2160000000
  H         1.3600000000       -0.0100000000        6.6280000000
  H         1.1700000000        1.7540000000        7.9930000000
  H         4.6740000000        0.7210000000        7.4250000000
      68
 i =        1, time =        1.000, E =      -806.5523304794
  C        14.3576679231        3.1050516335        2.4808362876
  F        15.0102899685        2.0130117467        2.9919714337
  F        14.6087407412        4.2253088795        3.2440072293
  F        14.7585743042        3.3925940645        1.1919673538
  O        12.9830143084        2.8750955902        2.5478977908
  C        12.6094796261        1.7497139339        1.8242914034
  F        12.9312391890        1.8764076364        0.4842877101
  F        13.2312291953        0.6496332032        2.3101596271
  C        11.1023969434        1.5924940350        1.9492291740
  F        10.6684540918        0.5098830379        1.2585167456
  F        10.8425318504        1.4013033306        3.3051482706
  C        10.3894650725        2.8601712989        1.5627539523
  F        10.6866511729        3.1672575957        0.2356589079
  F        10.7858939548        3.9250411588        2.3423091749
  O         9.0097254017        2.7483732235        1.7301717855
  C         8.4511502803        3.9366366630        1.3510513563
  F         8.8945542388        5.0026606985        2.1011476643
  F         8.8653401410        4.2039147954        0.0434177997
  C         6.9376377617        3.9174923852        1.2805219441
  O         6.3305578557        3.6228726427        2.4762517468
  C         4.9562879851        3.5967836101        2.4629010446
  C         4.3892793238        2.5826953301        1.4905037110
  C         2.8779911246        2.6090838676        1.5444537455
  O         2.3583009871        2.2747754416        2.7902139993
  O         4.7981770679        1.2969342727        1.8023251669
  H         6.6610769687        3.2315483280        0.4998190142
  H         6.6363119276        4.9092815624        0.9720942412
  H         4.6097463750        3.3132038698        3.4608554277
  H         4.4787471439        4.5813115326        2.2431466025
  H         4.6255401310        2.7896211906        0.4270725010
  H         2.4710415286        3.6186393012        1.2573059859
  H         2.4626538282        1.9058304953        0.8066240384
  H         2.3472221170        1.3175208045        2.9575778883
  H         5.7862453072        1.2442706467        1.6614995478
  C        13.1191947506        2.5448052676        5.7005684574
  F        13.8024271867        2.6350492467        6.8861449895
  F        13.2855266064        3.6819221716        4.9417972495
  F        13.5302485483        1.4741133176        4.9412908647
  O        11.7474230381        2.4537554387        5.9916402896
  C        11.4484137462        1.3436379511        6.7766314571
  F        11.8118518807        0.1656650790        6.1440917287
  F        12.1248944531        1.4188608094        7.9549095463
  C         9.9611602331        1.3393739802        7.0324139890
  F         9.6011099226        0.2747233606        7.7984665890
  F         9.6668786367        2.5076416092        7.7266973377
  C         9.1896211846        1.4117107200        5.7267098826
  F         9.5136054611        0.3211345233        4.9405981869
  F         9.5179870595        2.5585427591        5.0212823825
  O         7.8119185990        1.4680684428        5.9565682247
  C         7.2047727537        1.5307224171        4.7317609266
  F         7.5808416672        2.6456594582        3.9971537900
  F         7.6538442028        0.4352566216        3.9830444063
  C         5.7025294098        1.4065879771        4.7793691503
  O         5.0819142761        2.3660407634        5.5192329562
  C         3.6979416824        2.2748474150        5.5718257108
  C         3.2217280861        0.9783834183        6.1814343676
  C         1.7068972990        0.9752744295        6.2312915719
  O         1.1902829978        1.9796437265        7.0299055583
  O         3.6885037618        0.8124854967        7.4840678199
  H         5.4658127504        0.3691863101        5.1316501317
  H         5.3427011817        1.4763764611        3.7443148237
  H         3.3505557865        3.0699566198        6.2359857265
  H         3.2125708975        2.4211104900        4.5937407843
  H         3.5128452655        0.0752440361        5.5998912886
  H         1.2468680475        1.0567768333        5.1949982575
  H         1.3636152926       -0.0225858496        6.6486195648
  H         1.1595487438        1.7666536285        8.0075730106
  H         4.6901704366        0.7342279295        7.4528415377
      68
 i =        2, time =        2.000, E =      -806.5486361422
  C        14.3656354319        3.1019015936        2.4798905145
  F        15.0128464938        2.0127906829        2.9895907522
  F        14.6077585883        4.2220498549        3.2395750993
  F        14.7660706934        3.3870650136        1.1954428070
  O        12.9914841175        2.8721673018        2.5483556263
  C        12.6134565706        1.7463331572        1.8299478896
  F        12.9316549932        1.8735947335        0.4877203952
  F        13.2251516793        0.6449256908        2.3074900042
  C        11.0965385130        1.5965132422        1.9468380845
  F        10.6680644101        0.5179006385        1.2559588829
  F        10.8409969118        1.4074882525        3.3017445822
  C        10.3924564276        2.8606712760        1.5678735497
  F        10.6882692613        3.1679265455        0.2318350310
  F        10.7847811404        3.9236272542        2.3453953083
  O         9.0098503210        2.7552979807        1.7303774073
  C         8.4594268391        3.9414893016        1.3513310650
  F         8.8936744559        4.9975108824        2.1052622871
  F         8.8626723212        4.2062880677        0.0448227681
  C         6.9403344328        3.9183372556        1.2788423113
  O         6.3285328386        3.6268787399        2.4789943252
  C         4.9571038508        3.5970934042        2.4723969757
  C         4.3828836001        2.5843215738        1.4872239469
  C         2.8843374281        2.6092687638        1.5397115741
  O         2.3459095103        2.2735719590        2.7923823696
  O         4.7954030679        1.2987485960        1.7995153976
  H         6.6864895933        3.2431849869        0.5141728413
  H         6.6470399057        4.8917314094        0.9740631202
  H         4.6198435886        3.3183398780        3.4614525405
  H         4.4562169851        4.5780545411        2.2531319159
  H         4.6063864164        2.7954160644        0.4238732259
  H         2.4753089512        3.6334357665        1.2779777904
  H         2.4555396432        1.9183289799        0.8214871327
  H         2.3845017870        1.3426575613        2.9710817219
  H         5.7778306424        1.2279703276        1.6533801624
  C        13.1281684663        2.5490961260        5.6968377061
  F        13.7980097779        2.6312378663        6.8855465259
  F        13.2789719696        3.6843043669        4.9417420952
  F        13.5284026583        1.4816697097        4.9442261143
  O        11.7483032900        2.4522773022        5.9910547703
  C        11.4428524557        1.3428556307        6.7771255337
  F        11.8127645318        0.1664360724        6.1386873036
  F        12.1222270860        1.4143073871        7.9530233725
  C         9.9576459532        1.3386528629        7.0315822093
  F         9.6022267551        0.2724142761        7.7977255443
  F         9.6608477240        2.5008901462        7.7264896092
  C         9.1878829150        1.4096089643        5.7203314531
  F         9.5166359891        0.3224711798        4.9340722689
  F         9.5201214038        2.5638212622        5.0223497140
  O         7.8063533091        1.4671579468        5.9555878035
  C         7.2066694738        1.5284746257        4.7310299471
  F         7.5819308820        2.6448828142        3.9981594210
  F         7.6565199825        0.4315741583        3.9866978363
  C         5.7049019390        1.4147560982        4.7831423435
  O         5.0837330325        2.3681033036        5.5213795170
  C         3.6887934752        2.2736072831        5.5637163837
  C         3.2170940367        0.9732453177        6.1789804713
  C         1.7120682479        0.9716432288        6.2284369281
  O         1.1971619560        1.9792527073        7.0367808314
  O         3.6911836981        0.8118447588        7.4909960105
  H         5.4755726169        0.3657831927        5.1241597534
  H         5.3393041626        1.4812400175        3.7626007410
  H         3.3607849178        3.0539248091        6.2385704089
  H         3.2133166273        2.4242717063        4.5889053255
  H         3.5286686173        0.0671144709        5.6092319655
  H         1.2378176077        1.0746002311        5.1830600295
  H         1.3711998492       -0.0292123699        6.6633757102
  H         1.1528211564        1.7784105700        8.0072158439
  H         4.6925976923        0.7501259957        7.4816389345
      68
 i =        3, time =        3.000, E =      -806.5489162693
  C        14.3737644703        3.0995653631        2.4791399511
  F        15.0157119477        2.0132623400        2.9868916599
  F        14.6070701534        4.2182646821        3.2347312841
  F        14.7738818116        3.3813923863        1.1993663675
  O        13.0003413854        2.8691946360        2.5483933305
  C        12.6176894903        1.7429898814        1.8348181300
  F        12.9322270767        1.8705827837        0.4912774768
  F        13.2188885331        0.6397992225        2.3050503876
  C        11.0907918158        1.6000270714        1.9459165495
  F        10.6677959357        0.5259323162        1.2532657622
  F        10.8393009998        1.4135539295        3.2978531925
  C        10.3948194633        2.8626454492        1.5721308359
  F        10.6908227259        3.1680044630        0.2286148359
  F        10.7847033062        3.9217621038        2.3482616612
  O         9.0104527356        2.7616311551        1.7306320453
  C         8.4664673274        3.9474774386        1.3508805287
  F         8.8923758492        4.9926754486        2.1093977378
  F         8.8590885518        4.2091478920        0.0461537746
  C         6.9434826169        3.9194806051        1.2777006630
  O         6.3269900219        3.6310781987        2.4821524977
  C         4.9563377102        3.5980644541        2.4809951975
  C         4.3761144197        2.5868644747        1.4834139664
  C         2.8896843663        2.6099756337        1.5344022598
  O         2.3329231314        2.2730745423        2.7952187288
  O         4.7935403252        1.2994075920        1.7965540541
  H         6.7082616229        3.2428903282        0.5150710223
  H         6.6560546867        4.8877684646        0.9690073779
  H         4.6309441682        3.3238423901        3.4661580892
  H         4.4390178747        4.5733330607        2.2633422235
  H         4.5896295917        2.8045454021        0.4219896064
  H         2.4846396896        3.6401902110        1.3013352865
  H         2.4492982599        1.9287811602        0.8297397165
  H         2.4241326757        1.3568797374        2.9827032410
  H         5.7599341793        1.2119820589        1.6473720368
  C        13.1364875503        2.5537756517        5.6929927966
  F        13.7938414467        2.6275864011        6.8842782372
  F        13.2723781928        3.6862440069        4.9427771978
  F        13.5264897324        1.4895919304        4.9477153201
  O        11.7496046681        2.4505946883        5.9902610916
  C        11.4385368378        1.3417205740        6.7773286219
  F        11.8136653151        0.1672748958        6.1338586285
  F        12.1189727393        1.4093483277        7.9513658465
  C         9.9534455973        1.3387621909        7.0314148106
  F         9.6033299392        0.2700394036        7.7967557425
  F         9.6549280775        2.4938129193        7.7263488725
  C         9.1858435394        1.4077728992        5.7130283230
  F         9.5200543885        0.3240477116        4.9284266541
  F         9.5223486918        2.5687638726        5.0241695147
  O         7.8014528900        1.4662437965        5.9550411993
  C         7.2075814589        1.5263410429        4.7287957984
  F         7.5823174674        2.6436731357        3.9999673634
  F         7.6579633250        0.4279997300        3.9899223790
  C         5.7071936325        1.4211868395        4.7864431646
  O         5.0862475676        2.3712015585        5.5244896665
  C         3.6790502033        2.2720353206        5.5558181672
  C         3.2125529921        0.9675902069        6.1757768247
  C         1.7161041550        0.9661281257        6.2255106277
  O         1.2036152019        1.9798426477        7.0442637356
  O         3.6948511975        0.8111459372        7.4986736009
  H         5.4880485112        0.3671998834        5.1159227119
  H         5.3381423624        1.4819510288        3.7759193492
  H         3.3698022189        3.0424894005        6.2430875298
  H         3.2153083573        2.4278307797        4.5831019546
  H         3.5425313690        0.0632069213        5.6159569446
  H         1.2356139021        1.0918792985        5.1837312331
  H         1.3827074183       -0.0281658077        6.6703680783
  H         1.1501857779        1.7876295924        7.9951066747
  H         4.6816632173        0.7684787617        7.5097043516
      68
 i =        4, time =        4.000, E =      -806.5536609140
  C        14.3819140073        3.0980239851        2.4785506886
  F        15.0189296378        2.0143456313        2.9839130080
  F        14.6066914077        4.2140014951        3.2294939923
  F        14.7821098127        3.3755482114        1.2037141137
  O        13.0095124647        2.8661694428        2.5480184171
  C        12.6219354080        1.7398128358        1.8387793781
  F        12.9329336697        1.8673824975        0.4949397257
  F        13.2125307972        0.6341530438        2.3028579421
  C        11.0855066474        1.6030539906        1.9464912772
  F        10.6676039762        0.5338648593        1.2503875901
  F        10.8373553785        1.4194913393        3.2935458201
  C        10.3964415397        2.8661430881        1.5753460893
  F        10.6942616230        3.1675136447        0.2260685162
  F        10.7856703749        3.9194761102        2.3509241351
  O         9.0115882862        2.7672751975        1.7309338444
  C         8.4719570184        3.9544557470        1.3497583890
  F         8.8906511239        4.9882843303        2.1136035756
  F         8.8546942827        4.2125278314        0.0473554521
  C         6.9471792631        3.9208767903        1.2773420932
  O         6.3259824780        3.6355231692        2.4856120170
  C         4.9539661702        3.5997314725        2.4883425550
  C         4.3692895082        2.5902432414        1.4793583847
  C         2.8937456340        2.6114006577        1.5290999434
  O         2.3195227372        2.2735445425        2.7984662227
  O         4.7921750938        1.2989605588        1.7934589154
  H         6.7252500458        3.2292107713        0.5015207295
  H         6.6624348284        4.8989564571        0.9564910384
  H         4.6419031261        3.3284357966        3.4772651399
  H         4.4280474755        4.5672490193        2.2739152868
  H         4.5762715980        2.8170054143        0.4208331105
  H         2.4987702812        3.6390235352        1.3260391243
  H         2.4428141655        1.9353266239        0.8287315701
  H         2.4669650587        1.3550559260        2.9939292093
  H         5.7379981498        1.1967064211        1.6424619273
  C        13.1437455070        2.5587417252        5.6892326131
  F        13.7900284347        2.6241221479        6.8824124421
  F        13.2657101334        3.6878344047        4.9448372274
  F        13.5245318866        1.4977983061        4.9516451965
  O        11.7512758354        2.4487408950        5.9892852571
  C        11.4356030734        1.3403089902        6.7771069142
  F        11.8144964428        0.1681457711        6.1296447379
  F        12.1151540733        1.4040332363        7.9499697525
  C         9.9485962606        1.3395986515        7.0317715386
  F         9.6043954731        0.2675693152        7.7955333538
  F         9.6491381921        2.4865306407        7.7262856334
  C         9.1835703421        1.4062745878        5.7050387295
  F         9.5238030361        0.3258699429        4.9236664030
  F         9.5246189785        2.5733171784        5.0266941959
  O         7.7973305929        1.4653019408        5.9548694773
  C         7.2074356669        1.5243940940        4.7251247507
  F         7.5820325468        2.6420378530        4.0025131193
  F         7.6581445063        0.4245584486        3.9926672091
  C         5.7094853926        1.4257373489        4.7893319241
  O         5.0892480634        2.3753009535        5.5285593049
  C         3.6691778981        2.2700054363        5.5483515171
  C         3.2085142780        0.9615064518        6.1720189820
  C         1.7187997171        0.9589936789        6.2227000371
  O         1.2096488504        1.9814326087        7.0517121734
  O         3.6989747987        0.8104538549        7.5069431199
  H         5.5025695506        0.3733372550        5.1078772591
  H         5.3385119187        1.4790376323        3.7813481546
  H         3.3761837163        3.0369375987        6.2499239708
  H         3.2175662716        2.4321257501        4.5750409798
  H         3.5538838702        0.0633267788        5.6198335432
  H         1.2405785470        1.1073080984        5.1974030871
  H         1.3970881716       -0.0202448548        6.6691844641
  H         1.1514799468        1.7919732955        7.9797276689
  H         4.6632346834        0.7888007936        7.5356287769
      68
 i =        5, time =        5.000, E =      -806.5577886710
  C        14.3899412089        3.0972212335        2.4780792592
  F        15.0225444416        2.0159507783        2.9806975554
  F        14.6066442448        4.2093202642        3.2238762986
  F        14.7908094253        3.3695546782        1.2084695696
  O        13.0189222299        2.8630830800        2.5472290730
  C        12.6259679277        1.7369170200        1.8417443167
  F        12.9337553975        1.8639925732        0.4986885192
  F        13.2061459252        0.6279002296        2.3009104788
  C        11.0809906687        1.6056658171        1.9485193740
  F        10.6674452506        0.5415959633        1.2472878811
  F        10.8350923622        1.4252732018        3.2889169213
  C        10.3972637262        2.8711088047        1.5773923542
  F        10.6985153685        3.1664998327        0.2242350927
  F        10.7876658366        3.9168258852        2.3534070087
  O         9.0132870991        2.7721835210        1.7312640611
  C         8.4756451963        3.9622177146        1.3480387988
  F         8.8884725236        4.9844507831        2.1179141800
  F         8.8496078345        4.2164636916        0.0483805332
  C         6.9511934426        3.9224961319        1.2773933562
  O         6.3255475174        3.6402601054        2.4892329251
  C         4.9500355483        3.6019968434        2.4943283533
  C         4.3627318981        2.5943240473        1.4753388960
  C         2.8962651274        2.6134230801        1.5242092456
  O         2.3060101660        2.2745849710        2.8019732995
  O         4.7907150941        1.2975358121        1.7902747559
  H         6.7382050722        3.2062838029        0.4784905708
  H         6.6667842339        4.9209405308        0.9379164502
  H         4.6521797900        3.3315215339        3.4947901670
  H         4.4233684945        4.5609449209        2.2847255896
  H         4.5671090592        2.8325978835        0.4198904773
  H         2.5163343748        3.6324435070        1.3502879350
  H         2.4359214406        1.9379268203        0.8180115972
  H         2.5126335606        1.3428821048        3.0042097223
  H         5.7202100344        1.1820211089        1.6370960107
  C        13.1495784533        2.5638898059        5.6857629302
  F        13.7866841946        2.6208759280        6.8800130819
  F        13.2587928993        3.6891692953        4.9478506647
  F        13.5225702189        1.5061775367        4.9558712333
  O        11.7532546624        2.4467558212        5.9881592259
  C        11.4340966942        1.3386989925        6.7763535028
  F        11.8152187484        0.1690178531        6.1260203295
  F        12.1108595219        1.3984621624        7.9488724825
  C         9.9431860999        1.3410327118        7.0324697691
  F         9.6053950437        0.2649809027        7.7940467219
  F         9.6435070207        2.4791827931        7.7263332258
  C         9.1811342238        1.4051797267        5.6966614619
  F         9.5278137419        0.3279171044        4.9197644491
  F         9.5268901778        2.5774256311        5.0298690996
  O         7.7940639951        1.4643101621        5.9549759818
  C         7.2062023519        1.5226927841        4.7201569892
  F         7.5810796100        2.6399906478        4.0057219507
  F         7.6570652223        0.4212633049        3.9948891271
  C         5.7118152151        1.4284482825        4.7917305143
  O         5.0925337912        2.3803252222        5.5335278096
  C         3.6595561676        2.2675557130        5.5415997278
  C         3.2053159583        0.9551650717        6.1679451014
  C         1.7201801092        0.9507157917        6.2202876525
  O         1.2153097287        1.9840276253        7.0583869909
  O         3.7027625830        0.8098073716        7.5156023399
  H         5.5180819829        0.3826283722        5.1013854103
  H         5.3400878573        1.4730912213        3.7781211274
  H         3.3791715449        3.0367897124        6.2580639397
  H         3.2193707949        2.4373525832        4.5641076943
  H         3.5626241370        0.0664754215        5.6204688720
  H         1.2515087471        1.1200570288        5.2213191935
  H         1.4123508146       -0.0087378037        6.6609578976
  H         1.1561147444        1.7889100651        7.9721300388
  H         4.6474375961        0.8107034190        7.5585290867
      68
 i =        6, time =        6.000, E =      -806.5588269560
  C        14.3977080775        3.0970600069        2.4776738622
  F        15.0266176056        2.0179719878        2.9772924134
  F        14.6069595911        4.2043058718        3.2178674474
  F        14.7999594052        3.3635298516        1.2135617996
  O        13.0284932804        2.8599166432        2.5460203982
  C        12.6295920569        1.7343918770        1.8436660792
  F        12.9346786336        1.8604010204        0.5025047630
  F        13.1997961393        0.6209797007        2.2992141816
  C        11.0774899192        1.6079844855        1.9518823691
  F        10.6672838567        0.5490669888        1.2439366859
  F        10.8324705171        1.4308463431        3.2840692554
  C        10.3972888216        2.8773826306        1.5781952432
  F        10.7034945994        3.1650288237        0.2231368322
  F        10.7906505207        3.9138899369        2.3557425368
  O         9.0155498661        2.7763651334        1.7315893527
  C         8.4773533222        3.9705097598        1.3458092747
  F         8.8857958832        4.9812691897        2.1223701914
  F         8.8439619254        4.2209877451        0.0491850013
  C         6.9551241430        3.9243500530        1.2771558196
  O         6.3257023054        3.6453321784        2.4928672063
  C         4.9446596770        3.6046400593        2.4990994108
  C         4.3567511086        2.5989434657        1.4716019377
  C         2.8970062481        2.6156190003        1.5199311201
  O         2.2927225900        2.2754646174        2.8056602943
  O         4.7886329617        1.2953022846        1.7870389035
  H         6.7486698620        3.1811211637        0.4538641281
  H         6.6705527159        4.9458932205        0.9159163620
  H         4.6618679316        3.3332724181        3.5162530921
  H         4.4242324509        4.5564133101        2.2954270036
  H         4.5626391456        2.8509099963        0.4189644802
  H         2.5350610051        3.6249813486        1.3720798463
  H         2.4295715842        1.9384567344        0.7994498109
  H         2.5587033356        1.3318095121        3.0117515658
  H         5.7136115216        1.1676556789        1.6298177312
  C        13.1536743689        2.5691128519        5.6827894463
  F        13.7839164039        2.6178771258        6.8771322808
  F        13.2516764926        3.6903360428        4.9517322075
  F        13.5207006477        1.5145902234        4.9602228569
  O        11.7554722144        2.4446832131        5.9869216001
  C        11.4339750768        1.3369644369        6.7749934786
  F        11.8158092980        0.1698641260        6.1228679138
  F        12.1062386286        1.3927487756        7.9481093487
  C         9.9373514603        1.3429094288        7.0332968705
  F         9.6062961695        0.2622602203        7.7922866045
  F         9.6380223198        2.4719332312        7.7265342060
  C         9.1786051454        1.4045441411        5.6882362445