#     Step Nr.          Time[fs]        Kin.[a.u.]          Temp[K]            Pot.[a.u.]        Cons Qty[a.u.]        UsedTime[s]
         0            0.000000         0.094890692       298.150000000      -806.555136261      -806.460245569         0.000000000
         1            1.000000         0.092298889       290.006460728      -806.552330479      -806.460031590        34.772609846
         2            2.000000         0.088932582       279.429399243      -806.548636142      -806.459703561         4.977266198
         3            3.000000         0.089266404       280.478280248      -806.548916269      -806.459649866         4.436358443
         4            4.000000         0.093620791       294.159924521      -806.553660914      -806.460040123         4.573665990
         5            5.000000         0.097593446       306.642148330      -806.557788671      -806.460195225         4.455806199
         6            6.000000         0.098739445       310.242921636      -806.558826956      -806.460087511         4.673213637
         7            7.000000         0.098269107       308.765101604      -806.558178627      -806.459909520         4.437166724
         8            8.000000         0.098867419       310.645018291      -806.558577602      -806.459710183         4.393367542
         9            9.000000         0.102967855       323.528739332      -806.562745181      -806.459777326         4.434142916
        10           10.000000         0.109547211       344.201311738      -806.569621040      -806.460073830         4.393921498
        11           11.000000         0.114571257       359.987048974      -806.574823603      -806.460252345         4.399034089
        12           12.000000         0.115466780       362.800815077      -806.575664982      -806.460198202         4.396018128
        13           13.000000         0.113497581       356.613520030      -806.573364397      -806.459866816         4.421374649
        14           14.000000         0.113161109       355.556311912      -806.572783739      -806.459622630         4.451207979
        15           15.000000         0.117764722       370.021030087      -806.577625549      -806.459860827         4.453907564
        16           16.000000         0.124017061       389.666105962      -806.584322468      -806.460305407         4.539105931
        17           17.000000         0.126454353       397.324167625      -806.586686512      -806.460232159         4.539886090
        18           18.000000         0.125722429       395.024435227      -806.585520866      -806.459798437         4.569415152
        19           19.000000         0.127418784       400.354442847      -806.587002271      -806.459583487         4.547177525
        20           20.000000         0.134524338       422.680352109      -806.594365304      -806.459840966         4.488003902
        21           21.000000         0.144099816       452.766853885      -806.604322827      -806.460223011         4.574316277
        22           22.000000         0.150897475       474.125343275      -806.611292436      -806.460394961         4.653386329
        23           23.000000         0.152492635       479.137394040      -806.612672870      -806.460180235         4.645008214
        24           24.000000         0.151792182       476.936546449      -806.611586948      -806.459794765         4.581986238
        25           25.000000         0.153137558       481.163765097      -806.612938720      -806.459801162         4.574467913
        26           26.000000         0.156592584       492.019583378      -806.616694811      -806.460102227         4.388545600
        27           27.000000         0.158564906       498.216689065      -806.618836334      -806.460271429         4.432200965
        28           28.000000         0.156245134       490.927883152      -806.616459287      -806.460214153         4.414815325
        29           29.000000         0.151003167       474.457432306      -806.610871702      -806.459868534         4.397670344
        30           30.000000         0.147196540       462.496870912      -806.606886721      -806.459690181         4.506407838
        31           31.000000         0.147114089       462.237808261      -806.606898648      -806.459784559         4.438302419
        32           32.000000         0.149350765       469.265524010      -806.609327494      -806.459976729         4.407970158
        33           33.000000         0.151404465       475.718325044      -806.611550483      -806.460146018         4.389380132
        34           34.000000         0.151113351       474.803632382      -806.611268480      -806.460155130         4.449636049
        35           35.000000         0.148912578       467.888726068      -806.608750944      -806.459838366         4.544718013
        36           36.000000         0.148770897       467.443557013      -806.608481378      -806.459710482         4.542524747
        37           37.000000         0.152935776       480.529760591      -806.612878594      -806.459942818         4.388890480
        38           38.000000         0.158140246       496.882392761      -806.618360339      -806.460220093         4.480852299
        39           39.000000         0.160684962       504.877984276      -806.620887713      -806.460202750         4.688398324
        40           40.000000         0.160499457       504.295120767      -806.620472640      -806.459973183         4.546901155
        41           41.000000         0.161020799       505.933194389      -806.620738526      -806.459717727         4.598919393
        42           42.000000         0.165576142       520.246247409      -806.625547508      -806.459971367         4.482175152
        43           43.000000         0.171831763       539.901635613      -806.632120494      -806.460288731         4.651897175
        44           44.000000         0.175182014       550.428247092      -806.635530184      -806.460348170         4.480473096
        45           45.000000         0.174555717       548.460398960      -806.634764396      -806.460208679         4.420347136
        46           46.000000         0.172235797       541.171125896      -806.632178489      -806.459942692         4.386199683
        47           47.000000         0.171250039       538.073836988      -806.631132556      -806.459882517         4.394741834
        48           48.000000         0.171901611       540.121102789      -806.632078783      -806.460177171         4.439258080
        49           49.000000         0.170618716       536.090199797      -806.630988048      -806.460369331         4.424609252
        50           50.000000         0.165019478       518.497190212      -806.625176035      -806.460156557         4.413608249
        51           51.000000         0.157599513       495.183388851      -806.617541053      -806.459941540         4.399178174
        52           52.000000         0.151779456       476.896561263      -806.611640937      -806.459861480         4.402958563
        53           53.000000         0.148922143       467.918779726      -806.608774281      -806.459852138         4.562738867
        54           54.000000         0.148778335       467.466928288      -806.608661128      -806.459882794         4.417640072
        55           55.000000         0.150485985       472.832426272      -806.610409109      -806.459923124         4.627186047
        56           56.000000         0.153150685       481.205010118      -806.613148701      -806.459998016         4.639941894
        57           57.000000         0.156128146       490.560302190      -806.616125768      -806.459997622         4.656257782
        58           58.000000         0.159630825       501.565845441      -806.619579905      -806.459949080         4.636062723
        59           59.000000         0.164673699       517.410740349      -806.624673369      -806.459999670         4.432258099
        60           60.000000         0.169987605       534.107225866      -806.630331801      -806.460344195         4.616419709
        61           61.000000         0.171368644       538.446499107      -806.631768542      -806.460399898         4.585421372
        62           62.000000         0.167893994       527.529023808      -806.627997513      -806.460103519         4.680729900
        63           63.000000         0.163248454       512.932566810      -806.623187674      -806.459939220         4.511552020
        64           64.000000         0.160117533       503.095100690      -806.620122159      -806.460004626         4.825423481
        65           65.000000         0.158187217       497.029978445      -806.618244431      -806.460057213         4.402979678
        66           66.000000         0.155971274       490.067403653      -806.616179795      -806.460208521         4.387762229
        67           67.000000         0.151884204       477.225681809      -806.612011713      -806.460127509         4.408930654
        68           68.000000         0.147010689       461.912920684      -806.606840665      -806.459829976         4.371018738
        69           69.000000         0.144845136       455.108675254      -806.604664378      -806.459819241         4.379044969
        70           70.000000         0.145791047       458.080760464      -806.605886271      -806.460095224         4.446511663
        71           71.000000         0.146361710       459.873805848      -806.606658871      -806.460297161         4.366118675
        72           72.000000         0.143965147       452.343716463      -806.604165301      -806.460200154         4.367605449
        73           73.000000         0.139812481       439.295891530      -806.599764430      -806.459951948         4.380295468
        74           74.000000         0.137084428       430.724247263      -806.596981355      -806.459896928         4.519246788
        75           75.000000         0.136409172       428.602569878      -806.596478729      -806.460069557         4.433169929
        76           76.000000         0.135652521       426.225144705      -806.595706326      -806.460053805         4.689945007
        77           77.000000         0.134948586       424.013355952      -806.594851946      -806.459903360         4.620974085
        78           78.000000         0.135651415       426.221669667      -806.595682924      -806.460031509         4.616049555
        79           79.000000         0.136594248       429.184086793      -806.596693343      -806.460099095         4.502388245
        80           80.000000         0.137130098       430.867743898      -806.597098989      -806.459968892         4.687144800
        81           81.000000         0.138795162       436.099438069      -806.598778268      -806.459983105         4.822576717
        82           82.000000         0.141433540       444.389316174      -806.601593578      -806.460160038         4.532684320
        83           83.000000         0.142922857       449.068804654      -806.603135007      -806.460212150         4.413842497
        84           84.000000         0.142162241       446.678920822      -806.602340995      -806.460178754         4.634749113
        85           85.000000         0.139880121       439.508415960      -806.599840180      -806.459960059         4.662180669
        86           86.000000         0.138565837       435.378888239      -806.598458384      -806.459892548         4.562064844
        87           87.000000         0.139058814       436.927840212      -806.599118964      -806.460060150         4.362495531
        88           88.000000         0.139394353       437.982117000      -806.599502253      -806.460107900         4.364497693
        89           89.000000         0.138440866       434.986227469      -806.598493211      -806.460052344         4.377467294
        90           90.000000         0.136931644       430.244195285      -806.596862260      -806.459930616         4.359825434
        91           91.000000         0.137145295       430.915494660      -806.596894980      -806.459749685         4.478890546
        92           92.000000         0.140758514       442.268360890      -806.600751149      -806.459992635         4.399485531
        93           93.000000         0.144508311       454.050359726      -806.604845709      -806.460337398         4.741140181
        94           94.000000         0.144636378       454.452750716      -806.604752691      -806.460116313         4.829538185
        95           95.000000         0.143160570       449.815707718      -806.603082864      -806.459922294         4.501144255
        96           96.000000         0.142835228       448.793471007      -806.602847219      -806.460011991         4.358300941
        97           97.000000         0.143000698       449.313385024      -806.603048016      -806.460047318         4.361284276
        98           98.000000         0.142680404       448.307007860      -806.602671261      -806.459990857         4.517343462
        99           99.000000         0.142423162       447.498743692      -806.602362819      -806.459939657         4.497195241
       100          100.000000         0.142819767       448.744892607      -806.602831306      -806.460011539         4.391314683
       101          101.000000         0.143266694       450.149153931      -806.603347379      -806.460080684         4.382320712
       102          102.000000         0.143165796       449.832128791      -806.603140392      -806.459974595         4.358146489
       103          103.000000         0.143943025       452.274208742      -806.603802673      -806.459859648         4.444759079
       104          104.000000         0.146699626       460.935549726      -806.606733262      -806.460033636         4.352288215
       105          105.000000         0.149324739       469.183750931      -806.609523671      -806.460198932         4.425241282
       106          106.000000         0.149616746       470.101247056      -806.609729842      -806.460113096         4.507489802
       107          107.000000         0.148512917       466.632975159      -806.608471596      -806.459958679         4.553964809
       108          108.000000         0.147918946       464.766698396      -806.607834762      -806.459915815         4.576859761
       109          109.000000         0.148645817       467.050551210      -806.608582149      -806.459936333         4.548648535
       110          110.000000         0.150009255       471.334523432      -806.610123528      -806.460114273         4.598893550
       111          111.000000         0.149716854       470.415789236      -806.609918574      -806.460201720         4.545189310
       112          112.000000         0.147528248       463.539109069      -806.607444730      -806.459916482         4.557213813
       113          113.000000         0.146941115       461.694316653      -806.606701882      -806.459760767         4.904279759
       114          114.000000         0.149980246       471.243376143      -806.609969205      -806.459988959         4.554257501
       115          115.000000         0.154076454       484.113811936      -806.614277691      -806.460201237         4.494546060
       116          116.000000         0.156151156       490.632599812      -806.616337909      -806.460186754         4.358046946
       117          117.000000         0.156379426       491.349832543      -806.616363574      -806.459984148         4.356440805
       118          118.000000         0.156901503       492.990216841      -806.616782027      -806.459880524         4.364185167
       119          119.000000         0.158749505       498.796706158      -806.618727996      -806.459978491         4.418957286
       120          120.000000         0.160646328       504.756592872      -806.620659802      -806.460013474         4.396274438
       121          121.000000         0.161080209       506.119863539      -806.621146568      -806.460066359         4.392062617
       122          122.000000         0.159713985       501.827139329      -806.619770061      -806.460056076         4.361178063
       123          123.000000         0.156966248       493.193647913      -806.616923982      -806.459957734         4.360233621
       124          124.000000         0.154431372       485.228975741      -806.614223728      -806.459792356         4.560492263
       125          125.000000         0.153909993       483.590782990      -806.613847834      -806.459937842         4.402297564
       126          126.000000         0.154264036       484.703200398      -806.614379499      -806.460115463         4.409602383
       127          127.000000         0.153269664       481.578848432      -806.613344933      -806.460075269         4.517850970
       128          128.000000         0.151349642       475.546069780      -806.611343153      -806.459993510         4.480131925
       129          129.000000         0.149384005       469.369964759      -806.609325224      -806.459941220         4.571617296
       130          130.000000         0.148073700       465.252940791      -806.607899437      -806.459825737         4.511484310
       131          131.000000         0.148782555       467.480187724      -806.608624028      -806.459841473         4.464071741
       132          132.000000         0.151100312       474.762665696      -806.611153313      -806.460053001         4.484500309
       133          133.000000         0.152400468       478.847802559      -806.612561895      -806.460161427         4.646439874
       134          134.000000         0.151342040       475.522181951      -806.611319247      -806.459977207         4.630657279
       135          135.000000         0.150399159       472.559617472      -806.610147504      -806.459748345         4.367326212
       136          136.000000         0.152874519       480.337288591      -806.612771687      -806.459897168         4.406315731
       137          137.000000         0.157510749       494.904489996      -806.617735108      -806.460224360         4.342735432
       138          138.000000         0.160270785       503.576622368      -806.620491764      -806.460220979         4.328870771
       139          139.000000         0.160658881       504.796036773      -806.620656487      -806.459997606         4.343050607
       140          140.000000         0.161418943       507.184176908      -806.621311085      -806.459892142         4.353001050
       141          141.000000         0.164192445       515.898622689      -806.624140842      -806.459948397         4.440377153
       142          142.000000         0.168237549       528.608486663      -806.628279659      -806.460042110         4.377965130
       143          143.000000         0.171620335       539.237322438      -806.631827763      -806.460207428         4.346720785
       144          144.000000         0.172679642       542.565703414      -806.632810358      -806.460130716         4.397753471
       145          145.000000         0.171884318       540.066766872      -806.631845430      -806.459961112         4.634585397
       146          146.000000         0.171581437       539.115103975      -806.631505552      -806.459924114         4.519007463
       147          147.000000         0.172375580       541.610328701      -806.632484653      -806.460109073         4.755051097
       148          148.000000         0.172015032       540.477474516      -806.632209332      -806.460194300         4.438045429
       149          149.000000         0.169051508       531.165974754      -806.629108342      -806.460056834         4.459423837
       150          150.000000         0.165022733       518.507415501      -806.624914351      -806.459891619         4.580806665
       151          151.000000         0.162052073       509.173496903      -806.621895980      -806.459843907         4.497741464
       152          152.000000         0.161157595       506.363011927      -806.620944166      -806.459786571         4.399661520
       153          153.000000         0.162428531       510.356341270      -806.622263160      -806.459834629         4.421433853
       154          154.000000         0.164838036       517.927090900      -806.624793866      -806.459955831         4.469670766
       155          155.000000         0.166919335       524.466609368      -806.626911150      -806.459991815         4.491203274
       156          156.000000         0.168144457       528.315988652      -806.628076666      -806.459932208         4.398718800
       157          157.000000         0.169617581       532.944595380      -806.629441011      -806.459823430         4.366235002
       158          158.000000         0.172651957       542.478716910      -806.632551313      -806.459899356         4.366595051
       159          159.000000         0.176007031       553.020480371      -806.636148757      -806.460141725         4.364280850
       160          160.000000         0.176762250       555.393405410      -806.636946040      -806.460183790         4.363753037
       161          161.000000         0.174178464       547.275057320      -806.634204151      -806.460025687         4.379984200
       162          162.000000         0.170146908       534.607761059      -806.630025401      -806.459878493         4.419865256
       163          163.000000         0.166632227       523.564505393      -806.626444376      -806.459812149         4.410573495
       164          164.000000         0.164674569       517.413473862      -806.624483481      -806.459808911         4.490254262
       165          165.000000         0.164086078       515.564413260      -806.624067053      -806.459980975         4.502562582
       166          166.000000         0.162768051       511.423123777      -806.622845474      -806.460077423         4.649900617
       167          167.000000         0.159790176       502.066532374      -806.619639722      -806.459849546         4.468157653
       168          168.000000         0.158077245       496.684440557      -806.617735450      -806.459658205         4.594169333
       169          169.000000         0.160053781       502.894789540      -806.619887203      -806.459833422         4.663451251
       170          170.000000         0.163620530       514.101643452      -806.623711911      -806.460091381         4.735565064
       171          171.000000         0.165028510       518.525569128      -806.625176061      -806.460147551         4.541262079
       172          172.000000         0.163106491       512.486515384      -806.623096607      -806.459990116         4.578897500
       173          173.000000         0.160024197       502.801835953      -806.619794012      -806.459769815         4.373723733
       174          174.000000         0.158405136       497.714688530      -806.618258324      -806.459853188         4.362302397
       175          175.000000         0.157845454       495.956144391      -806.617833113      -806.459987660         4.349143041
       176          176.000000         0.156203207       490.796146077      -806.616261755      -806.460058548         4.409520927
       177          177.000000         0.152726450       479.872049090      -806.612700480      -806.459974030         4.410664941
       178          178.000000         0.149079912       468.414493712      -806.608824116      -806.459744205         4.394892441
       179          179.000000         0.148313676       466.006953051      -806.607996463      -806.459682787         4.369569965
       180          180.000000         0.151061289       474.640052638      -806.611021233      -806.459959944         4.372356153
       181          181.000000         0.154108083       484.213190444      -806.614214657      -806.460106575         4.365710171
       182          182.000000         0.155426895       488.356946171      -806.615353612      -806.459926716         4.370314823
       183          183.000000         0.156479670       491.664801562      -806.616337744      -806.459858075         4.532575268
       184          184.000000         0.158096565       496.745146098      -806.618026681      -806.459930116         4.483161007
       185          185.000000         0.159611751       501.505914239      -806.619551143      -806.459939393         4.509307693
       186          186.000000         0.160777636       505.169168404      -806.620675091      -806.459897455         4.611402101
       187          187.000000         0.161681159       508.008070414      -806.621607025      -806.459925866         4.563647474
       188          188.000000         0.161593520       507.732705380      -806.621598753      -806.460005233         4.393681003
       189          189.000000         0.159786656       502.055474381      -806.619677683      -806.459891027         4.497150278
       190          190.000000         0.157888981       496.092910133      -806.617583287      -806.459694306         4.440188049
       191          191.000000         0.158194345       497.052372913      -806.617957838      -806.459763493         4.632689985
       192          192.000000         0.159448665       500.993491911      -806.619461738      -806.460013073         4.537743893
       193          193.000000         0.158168075       496.969834162      -806.618212773      -806.460044697         4.342451730
       194          194.000000         0.153902225       483.566377022      -806.613728500      -806.459826275         4.364575361
       195          195.000000         0.149466049       469.627751151      -806.609137051      -806.459671002         4.366868301
       196          196.000000         0.147067686       462.092008018      -806.606766535      -806.459698849         4.349959695
       197          197.000000         0.146237288       459.482865501      -806.606095573      -806.459858285         4.374239842
       198          198.000000         0.144650822       454.498133808      -806.604611946      -806.459961124         4.429979434
       199          199.000000         0.141075481       443.264281558      -806.600911726      -806.459836245         4.390259386
       200          200.000000         0.137885714       433.241918465      -806.597418052      -806.459532338         4.398438106
       201          201.000000         0.138889676       436.396402958      -806.598437761      -806.459548085         4.349496055
       202          202.000000         0.143841898       451.956464048      -806.603742976      -806.459901078         4.596033980
       203          203.000000         0.148355704       466.139008424      -806.608475613      -806.460119908         4.689648082
       204          204.000000         0.149578980       469.982585855      -806.609550357      -806.459971377         4.354958989
       205          205.000000         0.149332830       469.209171813      -806.609077650      -806.459744821         4.664341884
       206          206.000000         0.150320320       472.311900800      -806.610126808      -806.459806488         4.437379369
       207          207.000000         0.151980560       477.528436430      -806.611910740      -806.459930180         4.513331066
       208          208.000000         0.152408991       478.874580899      -806.612362547      -806.459953556         4.527888565
       209          209.000000         0.151029269       474.539444148      -806.610981437      -806.459952169         4.599929650
       210          210.000000         0.148073457       465.252175073      -806.607963300      -806.459889844         4.811302412
       211          211.000000         0.145067332       455.806821719      -806.604618543      -806.459551211         4.624727719
       212          212.000000         0.145263723       456.423891773      -806.604840005      -806.459576281         4.695248423
       213          213.000000         0.149328659       469.196067381      -806.609151619      -806.459822960         4.649830839
       214          214.000000         0.153858308       483.428388503      -806.613887060      -806.460028752         4.407279264
       215          215.000000         0.156171135       490.695376246      -806.616096340      -806.459925204         4.334776427
       216          216.000000         0.157413680       494.599497685      -806.617126263      -806.459712582         4.340079756
       217          217.000000         0.160024899       502.804042088      -806.619725577      -806.459700678         4.356825525
       218          218.000000         0.164342395       516.369771767      -806.624132185      -806.459789789         4.447115178
       219          219.000000         0.168615971       529.797500280      -806.628551359      -806.459935388         4.367341701
       220          220.000000         0.170800919       536.662685617      -806.630727547      -806.459926628         4.366946570
       221          221.000000         0.170365244       535.293778921      -806.630292530      -806.459927287         4.379650096
       222          222.000000         0.169066573       531.213307744      -806.628718233      -806.459651660         4.487730109
       223          223.000000         0.170014072       534.190385996      -806.629653296      -806.459639224         4.333795710
       224          224.000000         0.173343442       544.651387298      -806.633307663      -806.459964221         4.331664918
       225          225.000000         0.175094036       550.151815691      -806.635220853      -806.460126818         4.316197288
       226          226.000000         0.173373699       544.746453951      -806.633263314      -806.459889616         4.368741647
       227          227.000000         0.171078881       537.536054220      -806.630773550      -806.459694669         4.559130948