      68
 i =        0, time =        0.000, E =      -806.5551362615
  C         0.0103890468        0.0182078527        0.0055457610
  F         0.0088089052        0.0321237747       -0.0145860056
  F         0.0097698394       -0.0231483233       -0.0179776149
  F        -0.0050483925       -0.0051204023        0.0224279037
  O         0.0165254080        0.0004591400       -0.0150832288
  C         0.0173681305       -0.0054698783       -0.0111594251
  F         0.0073264334       -0.0095616054        0.0063497801
  F        -0.0167889510       -0.0108457128        0.0025597701
  C        -0.0147771243       -0.0097843695        0.0298666678
  F         0.0075556298        0.0094942753       -0.0005323472
  F         0.0014454945       -0.0043968243       -0.0225192209
  C        -0.0069479961        0.0267456409       -0.0088665144
  F         0.0375966101       -0.0215098661        0.0152997335
  F         0.0348897964       -0.0166439960       -0.0079599576
  O         0.0096750582       -0.0088006630        0.0001199818
  C        -0.0118083773        0.0300380680       -0.0192438972
  F        -0.0179545309        0.0021904267       -0.0030545139
  F        -0.0413975651        0.0166260458        0.0018136048
  C        -0.0103612862        0.0102129799       -0.0250830668
  O         0.0109900884        0.0023022161        0.0166507154
  C        -0.0306187100        0.0084681199        0.0025307676
  C        -0.0228797983        0.0211166187       -0.0236786008
  C        -0.0049329553       -0.0101886715       -0.0420518574
  O        -0.0240855102       -0.0204598982        0.0378082047
  O         0.0286859244       -0.0326176503       -0.0029237905
  H         0.0058609460        0.0022839337       -0.0004749636
  H         0.0055516447       -0.0013814936       -0.0055267865
  H         0.0069054911        0.0067828384       -0.0046818738
  H         0.0033440247        0.0020953604       -0.0014647113
  H         0.0005181347        0.0058742238        0.0035256670
  H         0.0049538599       -0.0033933009        0.0066165451
  H         0.0063496176        0.0062632961        0.0021371708
  H         0.0054202580        0.0222345895       -0.0108072154
  H        -0.0150312033       -0.0034626910        0.0039577735
  C         0.0055678106        0.0138368356       -0.0112729437
  F         0.0026122965        0.0047762823       -0.0309286185
  F        -0.0047091970       -0.0245130555        0.0456138852
  F        -0.0051409764        0.0202359738        0.0276285761
  O         0.0152381485       -0.0082756554       -0.0076130064
  C         0.0178099043       -0.0116466686        0.0008583109
  F         0.0055013059        0.0053365753        0.0161831991
  F        -0.0195109261       -0.0152685763        0.0072183754
  C        -0.0150907158        0.0229470813        0.0191482664
  F         0.0009294629        0.0001159717       -0.0072150044
  F         0.0031757375       -0.0159774476        0.0059264081
  C        -0.0097068338        0.0024639974       -0.0283227023
  F         0.0170803324        0.0054098128        0.0331177415
  F         0.0077668710       -0.0072290026        0.0307669361
  O         0.0106977276        0.0014343765        0.0138373004
  C        -0.0178666970       -0.0016447015       -0.0341229433
  F        -0.0309842550       -0.0163169131        0.0338001394
  F        -0.0410115776        0.0010654978       -0.0142111098
  C        -0.0044494727       -0.0233610363       -0.0167951392
  O         0.0354016486        0.0310499544        0.0264339198
  C        -0.0371745498        0.0046452239       -0.0008066911
  C        -0.0200161400       -0.0111818506       -0.0232958273
  C        -0.0038097132       -0.0404270790       -0.0022026967
  O        -0.0128409573        0.0308054746        0.0316217042
  O         0.0328285621       -0.0057652303        0.0302725339
  H         0.0055774084        0.0014317194       -0.0019379971
  H         0.0063097828       -0.0093273892        0.0053327522
  H         0.0052459479       -0.0018446544       -0.0017613427
  H         0.0056191113       -0.0003927226        0.0028385207
  H         0.0003453635        0.0049464149       -0.0052563733
  H         0.0041858408        0.0055717080        0.0051447711
  H         0.0061628059        0.0038150299       -0.0054349510
  H         0.0060577115       -0.0002929194       -0.0251732418
  H        -0.0175425390        0.0047630538        0.0052446944
      68
 i =        1, time =        1.000, E =      -806.5523304794
  C         0.0072523479        0.0193258296        0.0052758562
  F         0.0102069482        0.0293771021       -0.0134831378
  F         0.0106108942       -0.0217460948       -0.0168238808
  F        -0.0029835078       -0.0047143183        0.0194560678
  O         0.0146886500       -0.0007700186       -0.0141873542
  C         0.0120390421       -0.0022927449       -0.0153700264
  F         0.0067629206       -0.0084448530        0.0055513602
  F        -0.0117445432       -0.0130466293        0.0065383364
  C        -0.0061820698       -0.0114945950        0.0334005512
  F         0.0059822020        0.0051526496       -0.0028568926
  F        -0.0025574766       -0.0045340866       -0.0211355274
  C        -0.0114677120        0.0321645366       -0.0153564125
  F         0.0370249740       -0.0225403358        0.0198051226
  F         0.0380326333       -0.0174252152       -0.0085406680
  O         0.0128833468       -0.0144618138        0.0010911265
  C        -0.0211509806        0.0294362421       -0.0186799828
  F        -0.0166194860        0.0072557424       -0.0012652182
  F        -0.0385966769        0.0175559255       -0.0004913351
  C         0.0014260728        0.0085329306       -0.0048797596
  O         0.0134512117        0.0043035420        0.0158279760
  C        -0.0356369517        0.0127378220       -0.0098069558
  C        -0.0163414981        0.0225354829       -0.0189663040
  C        -0.0156097798        0.0024456943       -0.0289506626
  O        -0.0223300683        0.0006796349        0.0307758537
  O         0.0338251886       -0.0361153009       -0.0043513238
  H        -0.0013496371       -0.0120097499       -0.0151657729
  H         0.0008452204        0.0145626060       -0.0104123419
  H         0.0047758058        0.0039252027        0.0015067578
  H         0.0075627817       -0.0011549753       -0.0003276639
  H         0.0026534955        0.0064474416        0.0035109435
  H         0.0085850425       -0.0118699134        0.0068377712
  H         0.0045343544        0.0013570423       -0.0056089487
  H         0.0041799864        0.0012513271       -0.0082765758
  H        -0.0216560836       -0.0011599356        0.0048372152
  C        -0.0053507977        0.0117551436       -0.0072432219
  F         0.0059507215        0.0053368485       -0.0284681879
  F        -0.0031109541       -0.0206766864        0.0439435749
  F        -0.0036162161        0.0169661390        0.0246746867
  O         0.0147438933       -0.0075321619       -0.0072817227
  C         0.0248122314       -0.0101738985       -0.0033256969
  F         0.0023270136        0.0040556597        0.0192932008
  F        -0.0215131330       -0.0158616949        0.0078222508
  C        -0.0163285555        0.0219058053        0.0182583706
  F         0.0002645953       -0.0012423780       -0.0079506776
  F         0.0034635208       -0.0150514621        0.0036351925
  C        -0.0087016404        0.0045395734       -0.0263457742
  F         0.0162765925        0.0077400506        0.0335396406
  F         0.0056398036       -0.0101188531        0.0300571444
  O         0.0166431698        0.0006791676        0.0145549355
  C        -0.0212069536        0.0007211906       -0.0361159417
  F        -0.0288127879       -0.0166991555        0.0326185631
  F        -0.0447410717        0.0023325529       -0.0149712062
  C        -0.0037977545       -0.0343717607       -0.0144268839
  O         0.0291670172        0.0329495087        0.0294612499
  C        -0.0263839612       -0.0021193290        0.0015725961
  C        -0.0087665492       -0.0126248873       -0.0215030241
  C        -0.0175834248       -0.0461313455       -0.0035395762
  O        -0.0130291708        0.0311268072        0.0312706488
  O         0.0379284112       -0.0040707214        0.0277445993
  H         0.0059871634        0.0069286901       -0.0023169838
  H         0.0058951005       -0.0091681142       -0.0020902571
  H         0.0013679223        0.0040865693        0.0012167987
  H         0.0044182435        0.0001030520        0.0008608760
  H        -0.0020760511        0.0073671482       -0.0051816514
  H         0.0103232601        0.0021261303        0.0184128274
  H         0.0080636904        0.0121065732       -0.0119117295
  H         0.0075647554       -0.0018216491       -0.0303311457
  H        -0.0279197238        0.0054244707        0.0019418590
      68
 i =        2, time =        2.000, E =      -806.5486361422
  C         0.0039102954        0.0197006318        0.0047256193
  F         0.0118294502        0.0265255581       -0.0121925356
  F         0.0112470010       -0.0201471857       -0.0157641795
  F         0.0120515524       -0.0054978037        0.0171588499
  O         0.0124944867       -0.0014310534       -0.0135480849
  C         0.0061966290        0.0009078160       -0.0190333771
  F         0.0059842238       -0.0076218759        0.0047633749
  F        -0.0071081218       -0.0160425915        0.0088073603
  C         0.0027048287       -0.0122341496        0.0355748604
  F         0.0046412542        0.0005390400       -0.0051792751
  F        -0.0061639674       -0.0045661064       -0.0186749806
  C        -0.0152103075        0.0356872223       -0.0208747621
  F         0.0358172792       -0.0226317125        0.0231160918
  F         0.0396313036       -0.0172790335       -0.0084158026
  O         0.0153979178       -0.0190769241        0.0015806414
  C        -0.0299226952        0.0274880552       -0.0176777147
  F        -0.0160375398        0.0120382792        0.0007975363
  F        -0.0350733998        0.0186309770       -0.0028321391
  C         0.0109301901        0.0072255615        0.0130234865
  O         0.0155496413        0.0062353839        0.0134017688
  C        -0.0382970835        0.0160076257       -0.0217316774
  C        -0.0090406111        0.0221903643       -0.0128354357
  C        -0.0241925556        0.0126358949       -0.0137293509
  O        -0.0191839663        0.0227686948        0.0215408131
  O         0.0293855557       -0.0372561460       -0.0048878516
  H        -0.0073959880       -0.0242388640       -0.0273355871
  H        -0.0034804164        0.0276028598       -0.0142707489
  H         0.0020383709        0.0007445647        0.0083464224
  H         0.0108302001       -0.0029751575        0.0004570829
  H         0.0048693607        0.0067740731        0.0026727977
  H         0.0102862926       -0.0163376293        0.0054560706
  H         0.0017731253       -0.0041571346       -0.0134294692
  H         0.0047765781       -0.0221733293       -0.0038239840
  H        -0.0192625846        0.0006339405        0.0042890940
  C        -0.0158472689        0.0094088277       -0.0027635327
  F         0.0095376446        0.0061234444       -0.0256488352
  F        -0.0014987432       -0.0169462607        0.0417479461
  F        -0.0025669280        0.0140082522        0.0212120030
  O         0.0135801684       -0.0065938389       -0.0067125682
  C         0.0301551437       -0.0085390123       -0.0070442244
  F        -0.0004544439        0.0025973341        0.0220465314
  F        -0.0224765296       -0.0155325959        0.0087553512
  C        -0.0166084734        0.0201033561        0.0160832820
  F        -0.0005226278       -0.0025191500       -0.0087595296
  F         0.0042605878       -0.0124740983        0.0025652401
  C        -0.0072891496        0.0064318156       -0.0223850793
  F         0.0148523117        0.0091852671        0.0337084300
  F         0.0035589869       -0.0128619474        0.0288134324
  O         0.0214402669       -0.0001178433        0.0139894090
  C        -0.0238383851        0.0027647510       -0.0363886033
  F        -0.0269049742       -0.0165816906        0.0307219823
  F        -0.0471922938        0.0041368543       -0.0164228826
  C        -0.0019568649       -0.0420583527       -0.0114351465
  O         0.0224369580        0.0333989637        0.0310730981
  C        -0.0144052787       -0.0080329270        0.0051105467
  C         0.0022514547       -0.0125157421       -0.0181498951
  C        -0.0274770048       -0.0456053586       -0.0017346598
  O        -0.0137280575        0.0316332652        0.0195944420
  O         0.0318462041       -0.0018730409        0.0241660934
  H         0.0055176996        0.0097915986       -0.0015168707
  H         0.0045409204       -0.0084360318       -0.0100912516
  H        -0.0024618730        0.0093377421        0.0039258122
  H         0.0025312903        0.0008082599       -0.0019663450
  H        -0.0039830236        0.0085771634       -0.0053138760
  H         0.0139093652       -0.0011058251        0.0256164746
  H         0.0079697287        0.0155881192       -0.0157723684
  H         0.0083134569       -0.0051558661       -0.0238745795
  H        -0.0271447949        0.0049868030       -0.0014870406
      68
 i =        3, time =        3.000, E =      -806.5489162693
  C         0.0004962274        0.0192417272        0.0039047611
  F         0.0134877684        0.0234206019       -0.0107048516
  F         0.0118585731       -0.0183040445       -0.0150669478
  F         0.0159632121       -0.0065688760        0.0162428522
  O         0.0101195588       -0.0016938610       -0.0133057870
  C         0.0003146542        0.0040240901       -0.0220048103
  F         0.0051506151       -0.0072117450        0.0040270462
  F        -0.0036220147       -0.0199006720        0.0094646422
  C         0.0111726533       -0.0117870807        0.0362214094
  F         0.0029298920       -0.0037960464       -0.0070859601
  F        -0.0095618290       -0.0049115860       -0.0159287458
  C        -0.0179370832        0.0368799378       -0.0252254472
  F         0.0339048432       -0.0217779450        0.0258039311
  F         0.0400112586       -0.0161148605       -0.0078069036
  O         0.0171921797       -0.0222226226        0.0015208128
  C        -0.0375415805        0.0239699907       -0.0162581211
  F        -0.0163168672        0.0170136591        0.0026952553
  F        -0.0310355239        0.0199161590       -0.0049522433
  C         0.0132771280        0.0061206260        0.0189567030
  O         0.0172610832        0.0079170778        0.0097176131
  C        -0.0388633794        0.0168479532       -0.0302808223
  C        -0.0013491324        0.0202345727       -0.0059454966
  C        -0.0311234072        0.0173850211        0.0001694051
  O        -0.0133508570        0.0311965486        0.0132579674
  O         0.0160433785       -0.0356664135       -0.0043145330
  H        -0.0097180545       -0.0271918604       -0.0293525494
  H        -0.0053523562        0.0307796270       -0.0151564485
  H        -0.0002877089       -0.0018468777        0.0130048615
  H         0.0126538315       -0.0027680873        0.0007369500
  H         0.0069048367        0.0067663747        0.0014771756
  H         0.0097510594       -0.0160920162        0.0027351374
  H        -0.0004930756       -0.0079366229       -0.0188134779
  H         0.0065039410       -0.0325979508       -0.0008035744
  H        -0.0082065120        0.0014477331        0.0022306555
  C        -0.0256876871        0.0069367261        0.0020510409
  F         0.0136058257        0.0071686944       -0.0228796259
  F        -0.0028444175       -0.0133731238        0.0392463445
  F        -0.0017200664        0.0108808200        0.0168740890
  O         0.0119246896       -0.0055200636       -0.0058740267
  C         0.0334517989       -0.0066941471       -0.0102834241
  F        -0.0026672380        0.0012273266        0.0235412283
  F        -0.0216088241       -0.0136331171        0.0100107104
  C        -0.0157104768        0.0176023703        0.0126880194
  F        -0.0014416903       -0.0036459877       -0.0096720179
  F         0.0049687934       -0.0078518066        0.0029675251
  C        -0.0056603367        0.0081763168       -0.0166178528
  F         0.0126458105        0.0094082891        0.0339022113
  F         0.0016465029       -0.0149071901        0.0269911768
  O         0.0250923039       -0.0008934219        0.0120889265
  C        -0.0256065835        0.0045180205       -0.0347843381
  F        -0.0257132040       -0.0162971696        0.0282522378
  F        -0.0483304805        0.0050984460       -0.0183690793
  C         0.0000016150       -0.0455165030       -0.0099751541
  O         0.0156709012        0.0322840276        0.0309408893
  C        -0.0031236277       -0.0110853367        0.0104473292
  C         0.0121603774       -0.0103765857       -0.0134159355
  C        -0.0324469629       -0.0392009444        0.0028010961
  O        -0.0135308691        0.0322479266       -0.0011114497
  O         0.0147080385        0.0002173250        0.0190880756
  H         0.0041547794        0.0095902184        0.0003892187
  H         0.0031110012       -0.0073631036       -0.0160283937
  H        -0.0053547218        0.0119527406        0.0047117750
  H         0.0005407622        0.0014949990       -0.0045863968
  H        -0.0050996564        0.0081818098       -0.0057865786
  H         0.0145627398       -0.0037588793        0.0264112486
  H         0.0058369680        0.0139655508       -0.0166097770
  H         0.0079830047       -0.0099043713       -0.0066427805
  H        -0.0152244268        0.0040006285       -0.0043494953
      68
 i =        4, time =        4.000, E =      -806.5536609140
  C        -0.0029614845        0.0178806079        0.0028524938
  F         0.0152062198        0.0199828133       -0.0090675404
  F         0.0126969160       -0.0160076722       -0.0145662909
  F         0.0180588768       -0.0057192003        0.0156119596
  O         0.0076969661       -0.0019725547       -0.0133642597
  C        -0.0051659222        0.0068079875       -0.0241185853
  F         0.0044087228       -0.0072615943        0.0033139531
  F        -0.0010390907       -0.0232291902        0.0093808164
  C         0.0186204805       -0.0100485280        0.0351830422
  F         0.0012725906       -0.0077134732       -0.0084830584
  F        -0.0121536386       -0.0059561968       -0.0123118413
  C        -0.0193636716        0.0355391090       -0.0282987809
  F         0.0312020462       -0.0200263927        0.0272981058
  F         0.0393790597       -0.0139470952       -0.0068772226
  O         0.0181636645       -0.0237249215        0.0009163941
  C        -0.0436108848        0.0189707606       -0.0144630331
  F        -0.0173797083        0.0213504276        0.0040117056
  F        -0.0265048180        0.0212872388       -0.0067622000
  C         0.0076868223        0.0054021504        0.0099212001
  O         0.0184642458        0.0094150998        0.0052043465
  C        -0.0377421344        0.0144848681       -0.0329605176
  C         0.0064708118        0.0169949095        0.0008737377
  C        -0.0373231532        0.0144617705        0.0099644317
  O        -0.0036174005        0.0183947499        0.0083708395
  O        -0.0030560218       -0.0315285861       -0.0028706752
  H        -0.0081939774       -0.0187864205       -0.0192586592
  H        -0.0041255073        0.0219325936       -0.0123075311
  H        -0.0013861028       -0.0030628798        0.0130383302
  H         0.0127812226       -0.0004470531        0.0004819599
  H         0.0085232046        0.0063636893        0.0004344689
  H         0.0069752720       -0.0109974033       -0.0009244024
  H        -0.0008301461       -0.0080149402       -0.0197298945
  H         0.0057616688       -0.0210263851       -0.0019207235
  H         0.0084266238        0.0011992658       -0.0009259870
  C        -0.0344965393        0.0044060174        0.0070324140
  F         0.0179501402        0.0083488964       -0.0204311868
  F        -0.0095413575       -0.0097838455        0.0365077381
  F        -0.0001463480        0.0066189318        0.0113405290
  O         0.0099211843       -0.0042334397       -0.0048434308
  C         0.0345540287       -0.0048031880       -0.0128714423
  F        -0.0041670021        0.0000462078        0.0225723628
  F        -0.0182225300       -0.0098020448        0.0114425210
  C        -0.0135763825        0.0144666436        0.0082670649
  F        -0.0025258587       -0.0045308497       -0.0101183604
  F         0.0060774497       -0.0025107575        0.0042439427
  C        -0.0039439772        0.0097666916       -0.0093847813
  F         0.0100346948        0.0086129885        0.0328657774
  F         0.0000349413       -0.0170342447        0.0248982140
  O         0.0275939606       -0.0016098812        0.0089720434
  C        -0.0263266731        0.0059464086       -0.0313907430
  F        -0.0255795685       -0.0157732723        0.0253903844
  F        -0.0482655368        0.0055958776       -0.0200232699
  C         0.0009214099       -0.0445323093       -0.0118659798
  O         0.0091979513        0.0298246456        0.0289859801
  C         0.0060658923       -0.0101634274        0.0173052909
  C         0.0203441987       -0.0062365666       -0.0076506200
  C        -0.0318375329       -0.0276803165        0.0096397374
  O        -0.0120208198        0.0324102930       -0.0249471370
  O        -0.0108291767        0.0014704432        0.0125667927
  H         0.0020140475        0.0064069378        0.0031561977
  H         0.0024508053       -0.0061616686       -0.0175846083
  H        -0.0068943497        0.0109782317        0.0026481597
  H        -0.0009210789        0.0018931097       -0.0058351934
  H        -0.0053068400        0.0061530767       -0.0065847462
  H         0.0121192215       -0.0054442429        0.0208115353
  H         0.0017915882        0.0072852763       -0.0143079889
  H         0.0067865972       -0.0150474288        0.0158081206
  H         0.0053458701        0.0032110277       -0.0061435898
      68
 i =        5, time =        5.000, E =      -806.5577886710
  C        -0.0063021224        0.0155299873        0.0015985091
  F         0.0175514570        0.0159318028       -0.0072635504
  F         0.0138811472       -0.0127573635       -0.0149781395
  F         0.0172453954       -0.0011982879        0.0128956980
  O         0.0052010091       -0.0025821637       -0.0135222625
  C        -0.0098862837        0.0089732176       -0.0252531211
  F         0.0038869423       -0.0077207257        0.0025827943
  F         0.0013435132       -0.0255680275        0.0096176122
  C         0.0245765913       -0.0070967512        0.0323151130
  F        -0.0001021761       -0.0099588850       -0.0096298702
  F        -0.0137402196       -0.0079923150       -0.0083769921
  C        -0.0192959173        0.0316666040       -0.0300995457
  F         0.0277801776       -0.0175069168        0.0281507487
  F         0.0378791546       -0.0109408674       -0.0056421356
  O         0.0181859795       -0.0234344442       -0.0001588239
  C        -0.0479329440        0.0128320740       -0.0123444416
  F        -0.0190708731        0.0249645107        0.0055678980
  F        -0.0214227838        0.0225230012       -0.0084476811
  C        -0.0020208567        0.0056786851       -0.0069912381
  O         0.0190177775        0.0108072393        0.0004312483
  C        -0.0349864794        0.0091468424       -0.0294063484
  C         0.0139636281        0.0130386892        0.0068394741
  C        -0.0430507048        0.0042000219        0.0148291011
  O         0.0072554743       -0.0051847816        0.0058018641
  O        -0.0200620725       -0.0260809670       -0.0016669520
  H        -0.0050589976       -0.0045418385       -0.0032429033
  H        -0.0011801651        0.0060308412       -0.0069590159
  H        -0.0011956024       -0.0027117978        0.0079999692
  H         0.0112606596        0.0036008669       -0.0002212110
  H         0.0095332225        0.0055250452        0.0000337969
  H         0.0023617317       -0.0017920767       -0.0049912720
  H         0.0011028552       -0.0042058467       -0.0159309016
  H         0.0008151993        0.0022371819       -0.0055636971
  H         0.0227320453        0.0006498512       -0.0038850280
  C        -0.0420499032        0.0018147516        0.0120119474
  F         0.0220733077        0.0094740813       -0.0184352624
  F        -0.0076266875       -0.0064385069        0.0332413552
  F         0.0035265445        0.0012810941        0.0048089511
  O         0.0076982259       -0.0028227408       -0.0035986230
  C         0.0335222037       -0.0030152888       -0.0146848338
  F        -0.0050451758       -0.0009882787        0.0180734670
  F        -0.0124962355       -0.0054494208        0.0127946893
  C        -0.0102757524        0.0107157994        0.0031196970
  F        -0.0037696315       -0.0050648587       -0.0104722652
  F         0.0056086228        0.0037635385        0.0058734987
  C        -0.0022503726        0.0111181050       -0.0011607661
  F         0.0078314907        0.0071591944        0.0313808083
  F        -0.0012777251       -0.0186502872        0.0224905766
  O         0.0289813450       -0.0022305255        0.0049011046
  C        -0.0259838621        0.0069375524       -0.0264310117
  F        -0.0264650828       -0.0149158324        0.0223136056
  F        -0.0471544922        0.0062449493       -0.0215931916
  C         0.0001393338       -0.0396823818       -0.0172735221
  O         0.0032855546        0.0262645416        0.0253465005
  C         0.0126981420       -0.0057615894        0.0242102346
  C         0.0264049631       -0.0006392629       -0.0014225637
  C        -0.0255201651       -0.0124961907        0.0186528555
  O        -0.0104890971        0.0302491777       -0.0394711445
  O        -0.0354739619        0.0012484913        0.0052825525
  H        -0.0006351308        0.0009644666        0.0063517367
  H         0.0028496376       -0.0049556748       -0.0141137673
  H        -0.0072831244        0.0070660938       -0.0017505351
  H        -0.0014112374        0.0017634994       -0.0048652248
  H        -0.0046828926        0.0028966017       -0.0075320700
  H         0.0065788351       -0.0057576224        0.0090038243
  H        -0.0037557761       -0.0037586857       -0.0091813814
  H         0.0057561357       -0.0181476568        0.0302083533
  H         0.0255861523        0.0033353367       -0.0068999137
      68
 i =        6, time =        6.000, E =      -806.5588269560
  C        -0.0093877240        0.0121956859        0.0002047234
  F         0.0197909016        0.0114941953       -0.0050423237
  F         0.0152862348       -0.0080272083       -0.0159024476
  F         0.0121713891        0.0049471291        0.0070840446
  O         0.0024486380       -0.0036457945       -0.0135015368
  C        -0.0135992044        0.0102976315       -0.0253196473
  F         0.0036717507       -0.0084454258        0.0017430074
  F         0.0042676593       -0.0252942017        0.0104635640
  C         0.0287815938       -0.0031673250        0.0275756814
  F        -0.0006046521       -0.0112225563       -0.0098899310
  F        -0.0138626745       -0.0111813928       -0.0041187522
  C        -0.0177275888        0.0254995400       -0.0306493146
  F         0.0238584579       -0.0145486578        0.0284571983
  F         0.0356886597       -0.0073530358       -0.0041012487
  O         0.0171774496       -0.0212126898       -0.0016532948
  C        -0.0503389727        0.0060322068       -0.0098901614
  F        -0.0208512495        0.0280059349        0.0070913612
  F        -0.0158777654        0.0235384100       -0.0102978783
  C        -0.0116107491        0.0066723591       -0.0227036420
  O         0.0187460417        0.0118571981       -0.0042285425
  C        -0.0303528390        0.0022256076       -0.0218133673
  C         0.0204866577        0.0090636593        0.0114528950
  C        -0.0478095689       -0.0094841431        0.0157981472
  O         0.0155721457       -0.0256090759        0.0028805181
  O        -0.0250920545       -0.0213298150       -0.0022632940
  H        -0.0023793122        0.0087317795        0.0113464759
  H         0.0015814918       -0.0097309467       -0.0011665674
  H        -0.0004141550       -0.0013044590       -0.0001148786
  H         0.0085091211        0.0084481343       -0.0011661303
  H         0.0098140631        0.0042378967        0.0005421770
  H        -0.0030536583        0.0091692448       -0.0087234248
  H         0.0042301785        0.0017031865       -0.0091458228
  H        -0.0061530842        0.0219923569       -0.0084596867
  H         0.0250812087        0.0012529410       -0.0048916836
  C        -0.0481109205       -0.0008486866        0.0167745776
  F         0.0256033795        0.0104878013       -0.0167636453
  F        -0.0048462263       -0.0035799417        0.0293033730
  F         0.0094236465       -0.0040671272       -0.0017734713
  O         0.0054004360       -0.0013371783       -0.0021904337
  C         0.0305942632       -0.0014144599       -0.0156554425
  F        -0.0053846007       -0.0019414171        0.0129760892
  F        -0.0067024023       -0.0027744404        0.0138561310
  C        -0.0060095731        0.0064673888       -0.0024002781
  F        -0.0050537090       -0.0051914580       -0.0101481326
  F        -0.0005511940        0.0092079846        0.0076561954
  C        -0.0007254774        0.0121644726        0.0075400464