#     Step Nr.          Time[fs]        Kin.[a.u.]          Temp[K]            Pot.[a.u.]        Cons Qty[a.u.]        UsedTime[s]
       501          501.000000         0.051596801       329.150740444      -403.297390459      -403.245793658        21.975968354
       502          502.000000         0.051490291       328.471282403      -403.297195803      -403.245705512         3.138410378
       503          503.000000         0.052945588       337.755035826      -403.298727303      -403.245781715         3.148230799
       504          504.000000         0.054693915       348.908115106      -403.300637912      -403.245943997         3.035943651
       505          505.000000         0.054785032       349.489379613      -403.300696721      -403.245911688         3.049759252
       506          506.000000         0.053721968       342.707787990      -403.299485524      -403.245763556         3.289187755
       507          507.000000         0.053248798       339.689304690      -403.299065985      -403.245817186         3.216318263
       508          508.000000         0.052920702       337.596284402      -403.298799499      -403.245878797         3.085661246
       509          509.000000         0.051872650       330.910460578      -403.297688921      -403.245816271         3.104077695
       510          510.000000         0.050756526       323.790389240      -403.296516819      -403.245760293         3.130123874
       511          511.000000         0.050578620       322.655473999      -403.296328058      -403.245749438         3.162350439
       512          512.000000         0.051363673       327.663548547      -403.297207950      -403.245844278         3.132425519
       513          513.000000         0.051868875       330.886377104      -403.297769692      -403.245900817         3.232853704
       514          514.000000         0.051569701       328.977861586      -403.297341544      -403.245771843         3.127851197
       515          515.000000         0.052013035       331.806016417      -403.297715939      -403.245702904         3.116204077
       516          516.000000         0.053903379       343.865060418      -403.299773773      -403.245870394         3.165125296
       517          517.000000         0.055168940       351.938435422      -403.301151483      -403.245982543         3.073925019
       518          518.000000         0.054448699       347.343812094      -403.300318715      -403.245870016         3.108832078
       519          519.000000         0.053099592       338.737475835      -403.298818745      -403.245719152         3.130657167
       520          520.000000         0.053046370       338.397954840      -403.298782151      -403.245735781         3.105093204
       521          521.000000         0.053997945       344.468326235      -403.299914013      -403.245916068         3.071653403
       522          522.000000         0.053653144       342.268738422      -403.299619591      -403.245966447         3.056049319
       523          523.000000         0.051498787       328.525479415      -403.297259967      -403.245761181         3.137647015
       524          524.000000         0.049927834       318.503925064      -403.295626931      -403.245699097         3.124581928
       525          525.000000         0.049847069       317.988698228      -403.295674452      -403.245827383         3.087854279
       526          526.000000         0.049735399       317.276323935      -403.295593930      -403.245858531         3.050287344
       527          527.000000         0.048988191       312.509672558      -403.294785310      -403.245797119         3.156658888
       528          528.000000         0.048451926       309.088682846      -403.294192395      -403.245740469         3.069826663
       529          529.000000         0.049036861       312.820153711      -403.294795100      -403.245758239         3.106259562
       530          530.000000         0.050440638       321.775244803      -403.296293245      -403.245852608         3.106679318
       531          531.000000         0.051520663       328.665034962      -403.297371984      -403.245851321         3.143357986
       532          532.000000         0.052379591       334.144382304      -403.298132880      -403.245753289         3.116615138
       533          533.000000         0.053951282       344.170646931      -403.299781831      -403.245830549         3.108671802
       534          534.000000         0.055378489       353.275207591      -403.301273306      -403.245894817         3.093683029
       535          535.000000         0.055580247       354.562281313      -403.301430940      -403.245850693         3.100746417
       536          536.000000         0.055274504       352.611860064      -403.301038275      -403.245763771         3.116158323
       537          537.000000         0.055727438       355.501251671      -403.301489553      -403.245762115         3.114678224
       538          538.000000         0.056932774       363.190436559      -403.302828737      -403.245895963         3.046166598
       539          539.000000         0.057049861       363.937367787      -403.303063657      -403.246013797         3.062517052
       540          540.000000         0.054833680       349.799719138      -403.300696894      -403.245863214         3.082054676
       541          541.000000         0.052225095       333.158808884      -403.297885533      -403.245660438         3.098872882
       542          542.000000         0.051821654       330.585144425      -403.297528688      -403.245707033         3.143549434
       543          543.000000         0.052600891       335.556115799      -403.298505043      -403.245904152         3.077535947
       544          544.000000         0.052271516       333.454942850      -403.298153599      -403.245882083         3.097805203
       545          545.000000         0.050981784       325.227370452      -403.296729100      -403.245747316         3.127412562
       546          546.000000         0.050461198       321.906405134      -403.296144159      -403.245682961         3.103982478
       547          547.000000         0.051439662       328.148309255      -403.297213088      -403.245773426         3.156014021
       548          548.000000         0.052614498       335.642923769      -403.298487654      -403.245873156         3.043234874
       549          549.000000         0.053009684       338.163925813      -403.298745241      -403.245735557         3.099722747
       550          550.000000         0.053605434       341.964383631      -403.299337591      -403.245732157         3.136981729
       551          551.000000         0.054822145       349.726129097      -403.300669378      -403.245847234         3.063103963
       552          552.000000         0.055462480       353.811011695      -403.301328498      -403.245866018         3.077380308
       553          553.000000         0.055116912       351.606534733      -403.300910346      -403.245793434         3.074740958
       554          554.000000         0.054483746       347.567389361      -403.300242966      -403.245759219         3.131186835
       555          555.000000         0.053978624       344.345067506      -403.299743883      -403.245765260         3.123388810
       556          556.000000         0.053381355       340.534918619      -403.299170587      -403.245789232         3.100538594
       557          557.000000         0.051730390       330.002942498      -403.297627657      -403.245897267         3.140622740
       558          558.000000         0.048761339       311.062517370      -403.294512945      -403.245751606         3.080715635
       559          559.000000         0.046166526       294.509466225      -403.291867526      -403.245700999         3.192950616
       560          560.000000         0.044580953       284.394640594      -403.290407915      -403.245826963         3.078212129
       561          561.000000         0.042652933       272.095247699      -403.288489650      -403.245836718         3.134277549
       562          562.000000         0.040174540       256.284873037      -403.285910889      -403.245736349         3.104881166
       563          563.000000         0.038623243       246.388705335      -403.284255467      -403.245632224         3.140557183
       564          564.000000         0.039327033       250.878386308      -403.284996349      -403.245669315         3.114333020
       565          565.000000         0.041758862       266.391715114      -403.287576346      -403.245817484         3.041861304
       566          566.000000         0.043865217       279.828758062      -403.289725026      -403.245859809         3.064565429
       567          567.000000         0.045039300       287.318570192      -403.290756391      -403.245717091         3.159684628
       568          568.000000         0.046765566       298.330910774      -403.292497899      -403.245732333         3.106837391
       569          569.000000         0.048975763       312.430388674      -403.294842850      -403.245867087         3.078958324
       570          570.000000         0.050104473       319.630754425      -403.295979692      -403.245875219         3.157776862
       571          571.000000         0.050003821       318.988665552      -403.295797860      -403.245794039         3.108385704
       572          572.000000         0.049682216       316.937057537      -403.295432279      -403.245750063         3.111520314
       573          573.000000         0.049944284       318.608865068      -403.295696534      -403.245752249         3.131114017
       574          574.000000         0.050668758       323.230492290      -403.296486435      -403.245817676         3.084312478
       575          575.000000         0.051201054       326.626159278      -403.296977978      -403.245776923         3.077725814
       576          576.000000         0.052094141       332.323412046      -403.297769623      -403.245675482         3.107255332
       577          577.000000         0.054416311       347.137197938      -403.300155789      -403.245739479         3.099072043
       578          578.000000         0.057057531       363.986297959      -403.302901626      -403.245844095         3.047594123
       579          579.000000         0.058589044       373.756256036      -403.304379437      -403.245790393         3.125727483
       580          580.000000         0.059503072       379.587102371      -403.305250331      -403.245747259         3.100173622
       581          581.000000         0.060741468       387.487184549      -403.306491228      -403.245749760         3.092812200
       582          582.000000         0.062296255       397.405612900      -403.308140885      -403.245844631         3.087422860
       583          583.000000         0.062934424       401.476680681      -403.308872026      -403.245937601         3.076494574
       584          584.000000         0.061701340       393.610480844      -403.307495050      -403.245793711         3.083978624
       585          585.000000         0.060282348       384.558327709      -403.305889843      -403.245607495         3.125279944
       586          586.000000         0.060450951       385.633892425      -403.306178734      -403.245727783         3.097055932
       587          587.000000         0.060898378       388.488157334      -403.306731650      -403.245833272         3.094906525
       588          588.000000         0.060297194       384.653036818      -403.306066553      -403.245769359         3.079419383
       589          589.000000         0.059418763       379.049271113      -403.305086235      -403.245667472         3.077866496
       590          590.000000         0.059581050       380.084547300      -403.305210934      -403.245629884         3.114533653
       591          591.000000         0.060996894       389.116618637      -403.306727320      -403.245730427         3.140497121
       592          592.000000         0.062353882       397.773234534      -403.308180494      -403.245826612         3.063649518
       593          593.000000         0.062599113       399.337635343      -403.308338372      -403.245739259         3.128552838
       594          594.000000         0.062630391       399.537163837      -403.308336898      -403.245706507         3.124996023
       595          595.000000         0.063008945       401.952071902      -403.308821615      -403.245812670         3.095665841
       596          596.000000         0.062703057       400.000724247      -403.308539693      -403.245836636         3.096019126
       597          597.000000         0.061479393       392.194620688      -403.307242818      -403.245763425         3.129682483
       598          598.000000         0.060225821       384.197725334      -403.305934063      -403.245708242         3.098856738
       599          599.000000         0.059950026       382.438350889      -403.305621806      -403.245671780         3.117638062
       600          600.000000         0.060887081       388.416093548      -403.306651315      -403.245764233         3.223081535
       601          601.000000         0.061765710       394.021114850      -403.307605573      -403.245839863         3.091398102
       602          602.000000         0.061653641       393.306197807      -403.307386038      -403.245732397         3.123968499
       603          603.000000         0.061643761       393.243170902      -403.307298160      -403.245654399         3.101089238
       604          604.000000         0.062384779       397.970336552      -403.308161286      -403.245776507         3.203707462
       605          605.000000         0.062650943       399.668269097      -403.308483831      -403.245832889         3.257896268
       606          606.000000         0.061845228       394.528384237      -403.307615178      -403.245769951         3.116575344
       607          607.000000         0.060926325       388.666442039      -403.306622206      -403.245695881         3.122064943
       608          608.000000         0.060886697       388.413644443      -403.306600268      -403.245713571         3.098454148
       609          609.000000         0.061505123       392.358759941      -403.307300120      -403.245794997         3.115077266
       610          610.000000         0.061519640       392.451368202      -403.307375509      -403.245855869         3.078332206
       611          611.000000         0.060420981       385.442708259      -403.306150299      -403.245729318         3.176822259
       612          612.000000         0.059652384       380.539609863      -403.305285282      -403.245632897         3.118516338
       613          613.000000         0.060197978       384.020107959      -403.305965236      -403.245767258         3.111945772
       614          614.000000         0.060531957       386.150656060      -403.306394636      -403.245862678         3.094335992
       615          615.000000         0.059325663       378.455361089      -403.305104585      -403.245778922         3.132633174
       616          616.000000         0.057537087       367.045522975      -403.303176671      -403.245639584         3.122499042
       617          617.000000         0.056931495       363.182276047      -403.302554036      -403.245622541         3.094543108
       618          618.000000         0.057625360       367.608641537      -403.303397610      -403.245772250         3.061368438
       619          619.000000         0.057629300       367.633773952      -403.303509287      -403.245879987         3.036095604
       620          620.000000         0.055813409       356.049686754      -403.301533148      -403.245719739         3.102426004
       621          621.000000         0.054132833       345.328813954      -403.299708787      -403.245575954         3.095906616
       622          622.000000         0.054308986       346.452546041      -403.299970987      -403.245662001         3.121859521
       623          623.000000         0.055139553       351.750968094      -403.300911309      -403.245771756         3.061019083
       624          624.000000         0.055326513       352.943642152      -403.301064733      -403.245738220         3.093626041
       625          625.000000         0.055131935       351.702369790      -403.300850422      -403.245718487         3.114113172
       626          626.000000         0.055182685       352.026121148      -403.300901820      -403.245719135         3.125884891
       627          627.000000         0.055245384       352.426094583      -403.301051195      -403.245805811         3.052190254
       628          628.000000         0.054285659       346.303736970      -403.300091752      -403.245806092         3.058432689
       629          629.000000         0.052572480       335.374874449      -403.298207511      -403.245635031         3.104273088
       630          630.000000         0.051857263       330.812304801      -403.297514142      -403.245656879         3.103799496
       631          631.000000         0.052066396       332.146421369      -403.297816418      -403.245750022         3.133893338
       632          632.000000         0.051799131       330.441464763      -403.297563300      -403.245764169         3.151308352
       633          633.000000         0.051075738       325.826729506      -403.296762824      -403.245687087         3.098796887
       634          634.000000         0.050880173       324.579165568      -403.296525675      -403.245645502         3.119426313
       635          635.000000         0.051780386       330.321884358      -403.297463131      -403.245682745         3.147455622
       636          636.000000         0.053035927       338.331337514      -403.298824457      -403.245788530         3.139749668
       637          637.000000         0.053429963       340.845002617      -403.299168581      -403.245738618         3.106110251
       638          638.000000         0.053675553       342.411691541      -403.299292557      -403.245617005         3.136335244
       639          639.000000         0.055378877       353.277687514      -403.301084034      -403.245705157         3.100963831
       640          640.000000         0.057655022       367.797861576      -403.303477258      -403.245822236         3.125515899
       641          641.000000         0.058796289       375.078331393      -403.304597772      -403.245801483         3.146288417
       642          642.000000         0.058986020       376.288678102      -403.304674647      -403.245688627         3.134567172
       643          643.000000         0.059544764       379.853069431      -403.305225544      -403.245680780         3.103734215
       644          644.000000         0.060947384       388.800779233      -403.306716312      -403.245768929         3.126856972
       645          645.000000         0.061932711       395.086462432      -403.307809354      -403.245876643         3.043921234
       646          646.000000         0.061212134       390.489700446      -403.307020801      -403.245808667         3.088076968
       647          647.000000         0.059831098       381.679677710      -403.305515064      -403.245683965         3.113479242
       648          648.000000         0.059187483       377.573868937      -403.304954449      -403.245766967         3.044430587
       649          649.000000         0.058455647       372.905281838      -403.304278224      -403.245822577         3.091445292
       650          650.000000         0.056874560       362.819071134      -403.302647931      -403.245773371         3.301653815
       651          651.000000         0.055114949       351.594009964      -403.300813211      -403.245698263         3.496955903
       652          652.000000         0.054271898       346.215950188      -403.299936173      -403.245664274         3.115276340
       653          653.000000         0.054727370       349.121535621      -403.300424353      -403.245696983         3.107476179
       654          654.000000         0.055527977       354.228837687      -403.301293319      -403.245765342         3.109943909
       655          655.000000         0.056021623       357.377942434      -403.301698361      -403.245676738         3.118841188
       656          656.000000         0.057231537       365.096332804      -403.302885238      -403.245653701         3.182580408
       657          657.000000         0.059348141       378.598755423      -403.305133269      -403.245785128         3.417237048
       658          658.000000         0.060668497       387.021684787      -403.306523636      -403.245855139         3.056255936
       659          659.000000         0.060455185       385.660901276      -403.306211070      -403.245755886         3.107806141
       660          660.000000         0.059772606       381.306538380      -403.305475719      -403.245703113         3.108282805
       661          661.000000         0.059698471       380.833608888      -403.305427048      -403.245728577         3.107543058
       662          662.000000         0.059620831       380.338322204      -403.305472995      -403.245852164         3.060551906
       663          663.000000         0.057995849       369.972096419      -403.303827331      -403.245831482         3.090760043
       664          664.000000         0.055284578       352.676126281      -403.300892249      -403.245607670         3.122470872
       665          665.000000         0.053993006       344.436820047      -403.299577712      -403.245584706         3.110850010
       666          666.000000         0.054706478       348.988256659      -403.300410741      -403.245704263         3.091382631
       667          667.000000         0.055912857       356.684095865      -403.301682818      -403.245769961         3.099198649
       668          668.000000         0.056997043       363.600431110      -403.302730090      -403.245733047         3.108781197
       669          669.000000         0.058586619       373.740790042      -403.304266448      -403.245679828         3.084677898
       670          670.000000         0.061247635       390.716166173      -403.306971648      -403.245724013         3.109727486
       671          671.000000         0.064242037       409.818317221      -403.310085165      -403.245843128         3.089705454
       672          672.000000         0.066089739       421.605331996      -403.311898802      -403.245809064         3.309751010
       673          673.000000         0.066577929       424.719638475      -403.312242948      -403.245665019         3.102705684
       674          674.000000         0.067043875       427.692043370      -403.312704914      -403.245661038         3.146724776
       675          675.000000         0.067602379       431.254898623      -403.313396357      -403.245793978         3.087305871
       676          676.000000         0.067286239       429.238151090      -403.313017847      -403.245731607         3.091775904
       677          677.000000         0.066653932       425.204479946      -403.312262809      -403.245608878         3.100889640
       678          678.000000         0.067110250       428.115466207      -403.312771307      -403.245661057         3.182984505
       679          679.000000         0.068937289       439.770669093      -403.314641667      -403.245704378         3.120785116
       680          680.000000         0.071280974       454.721706274      -403.317054372      -403.245773398         3.092516473
       681          681.000000         0.073088120       466.250009017      -403.318871461      -403.245783340         3.091681479
       682          682.000000         0.074215460       473.441631384      -403.319926615      -403.245711155         3.101571886
       683          683.000000         0.075547810       481.941073746      -403.321276911      -403.245729101         3.111658715
       684          684.000000         0.076680205       489.164946677      -403.322518755      -403.245838549         3.102207961
       685          685.000000         0.076143189       485.739162822      -403.322022395      -403.245879207         3.082249348
       686          686.000000         0.073990391       472.005851404      -403.319747994      -403.245757603         3.133612883
       687          687.000000         0.071744969       457.681664960      -403.317420363      -403.245675394         3.106595410
       688          688.000000         0.070571476       450.195618965      -403.316279435      -403.245707959         3.091970096
       689          689.000000         0.069984535       446.451350606      -403.315803857      -403.245819323         3.086278845
       690          690.000000         0.068649256       437.933223022      -403.314443161      -403.245793905         3.454615436
       691          691.000000         0.067021565       427.549721991      -403.312627706      -403.245606140         3.134320294
       692          692.000000         0.067173370       428.518124694      -403.312798715      -403.245625345         3.339429222
       693          693.000000         0.069119681       440.934199287      -403.314880595      -403.245760914         3.081572155
       694          694.000000         0.071033394       453.142323398      -403.316858677      -403.245825283         3.094099754
       695          695.000000         0.072137549       460.186041887      -403.317913473      -403.245775924         3.385098618
       696          696.000000         0.073077832       466.184376106      -403.318765959      -403.245688127         3.138652013
       697          697.000000         0.074584288       475.794491891      -403.320314874      -403.245730586         3.111301403
       698          698.000000         0.075986884       484.742052584      -403.321858366      -403.245871481         3.087173759
       699          699.000000         0.075749340       483.226693121      -403.321611534      -403.245862193         3.140143285
       700          700.000000         0.074306625       474.023198472      -403.320013412      -403.245706787         3.102385545
       701          701.000000         0.073162366       466.723640639      -403.318944926      -403.245782561         3.101971635
       702          702.000000         0.071654260       457.103002328      -403.317512354      -403.245858094         3.096960102
       703          703.000000         0.069024199       440.325096756      -403.314779482      -403.245755283         3.103596565
       704          704.000000         0.066430757       423.780785281      -403.312093725      -403.245662969         3.150174497
       705          705.000000         0.065086137       415.203073643      -403.310762803      -403.245676666         3.098295948
       706          706.000000         0.064644936       412.388522569      -403.310415091      -403.245770155         3.092486309
       707          707.000000         0.063810649       407.066368158      -403.309617584      -403.245806934         3.072941334
       708          708.000000         0.062387824       397.989762048      -403.308032807      -403.245644983         3.113598607
       709          709.000000         0.062091014       396.096323618      -403.307684902      -403.245593888         3.110089604
       710          710.000000         0.063592076       405.672028340      -403.309341533      -403.245749457         3.084061761
       711          711.000000         0.065182979       415.820856458      -403.311005550      -403.245822570         3.081038306
       712          712.000000         0.065727833       419.296635781      -403.311496401      -403.245768568         3.213883412
       713          713.000000         0.065785095       419.661920376      -403.311495533      -403.245710438         3.147000687
       714          714.000000         0.066238421       422.553820513      -403.311936505      -403.245698084         3.148339819
       715          715.000000         0.067136645       428.283848268      -403.312908914      -403.245772268         3.169028125
       716          716.000000         0.067408681       430.019243402      -403.313259817      -403.245851136         3.065814634
       717          717.000000         0.066274347       422.783003019      -403.312033541      -403.245759193         3.097607656
       718          718.000000         0.064654151       412.447311071      -403.310368959      -403.245714808         3.105038228
       719          719.000000         0.063101382       402.541751260      -403.308886216      -403.245784834         3.090555519
       720          720.000000         0.061026876       389.307883655      -403.306776760      -403.245749885         3.125347943
       721          721.000000         0.058744414       374.747405193      -403.304419809      -403.245675395         3.100111838
       722          722.000000         0.057109376       364.317035256      -403.302788359      -403.245678982         3.111096488
       723          723.000000         0.056251775       358.846151364      -403.301969367      -403.245717592         3.068972476
       724          724.000000         0.055536592       354.283796097      -403.301334164      -403.245797571         3.121883141
       725          725.000000         0.054237139       345.994212643      -403.300002619      -403.245765480         3.103124018
       726          726.000000         0.052791753       336.773683865      -403.298456734      -403.245664980         3.138154882
       727          727.000000         0.052232607       333.206730731      -403.297973514      -403.245740907         3.407309713
       728          728.000000         0.051744534       330.093169591      -403.297592235      -403.245847701         3.094276136