      34
 i =      501, time =      501.000, E =      -403.2973904586
  C         5.5742171433       -1.1356564515       -1.8340992922
  F         6.3436148111       -0.2311934474       -2.4057320226
  F         5.2626069893       -2.0704309279       -2.8177340886
  F         6.2722368414       -1.7196904712       -0.8088524769
  O         4.3306373274       -0.6943695955       -1.4327995615
  C         3.9371076326        0.6429223188       -1.1808188127
  F         4.8472905206        1.2737763832       -0.3483296319
  F         3.9626537314        1.3836386067       -2.3416560437
  C         2.4894946654        0.6466054818       -0.5892773597
  F         1.9593056761        1.9120612475       -0.5482385801
  F         1.7598085220       -0.0944855193       -1.4600867690
  C         2.2938198973        0.1481344273        0.8397632749
  F         3.0092704606        0.7485516757        1.7777282902
  F         2.8193214929       -1.1325510028        0.9035400424
  O         0.8624651506        0.0006047853        0.8953021701
  C        -0.1292475906        0.4012558988        1.8064909961
  F        -0.5331020837       -0.8187482482        2.4674495149
  F         0.3950426022        1.2263070140        2.7663586269
  C        -1.3939576778        0.9983257432        1.1488842395
  O        -1.8346719625       -0.0206491049        0.2475526675
  C        -3.0877167187       -0.5902049294        0.6447940420
  C        -4.0800720814        0.4798329801        0.2302645969
  C        -5.5452469824        0.1792548423        0.6547064217
  O        -5.9455982461       -1.0256014680       -0.0977809789
  O        -3.8849535171        0.6627593488       -1.1447538561
  H        -1.1850888091        1.9187970953        0.5900490114
  H        -2.1160590239        1.2774464212        1.9145224525
  H        -3.1426204378       -1.5458199953        0.1275969917
  H        -2.9945826152       -0.7657313835        1.7060142404
  H        -3.7134068261        1.3985246745        0.6920457785
  H        -5.6313905758       -0.0844295121        1.7332587895
  H        -6.2120797898        1.0464482227        0.3833648187
  H        -6.2950754077       -1.6712497110        0.5890344676
  H        -4.6250915532        0.2212075826       -1.5720284062
      34
 i =      502, time =      502.000, E =      -403.2971958030
  C         5.5700159037       -1.1351357228       -1.8362189484
  F         6.3460291102       -0.2319895291       -2.4105493375
  F         5.2652911389       -2.0666629670       -2.8274396715
  F         6.2702346614       -1.7211052706       -0.8108184694
  O         4.3234029876       -0.6953084451       -1.4382446316
  C         3.9357542872        0.6434232210       -1.1823406585
  F         4.8503748987        1.2655809318       -0.3474224818
  F         3.9625654061        1.3749126138       -2.3396691711
  C         2.4857981718        0.6478872870       -0.5915386613
  F         1.9569894840        1.9160484746       -0.5457609644
  F         1.7564211437       -0.0935956076       -1.4551330840
  C         2.2980056800        0.1427767798        0.8393452420
  F         3.0159814619        0.7462221273        1.7873901372
  F         2.8237987857       -1.1294879846        0.9001881972
  O         0.8675870055        0.0077062932        0.8979191109
  C        -0.1306741287        0.4041298128        1.8033040075
  F        -0.5356233789       -0.8176210565        2.4664000752
  F         0.3867128880        1.2316308102        2.7703610185
  C        -1.3893852053        1.0006801683        1.1475936019
  O        -1.8256849659       -0.0261227349        0.2445262926
  C        -3.0890050666       -0.5946445818        0.6440963341
  C        -4.0757398107        0.4869866136        0.2383343469
  C        -5.5481236000        0.1773692043        0.6532094021
  O        -5.9417297781       -1.0246724851       -0.0994211834
  O        -3.8933416326        0.6623835933       -1.1437741961
  H        -1.1969090709        1.9203504361        0.5842573322
  H        -2.1075831307        1.2721149675        1.9076317223
  H        -3.1623058971       -1.5485982389        0.1218256333
  H        -3.0006669090       -0.7525095613        1.7152249183
  H        -3.7066152024        1.4096873543        0.7079038207
  H        -5.6306373580       -0.0691593700        1.7568140945
  H        -6.2154789599        1.0496766958        0.4066115159
  H        -6.2953570184       -1.6691022980        0.5931670777
  H        -4.6463785291        0.2504540854       -1.5591827025
      34
 i =      503, time =      503.000, E =      -403.2987273026
  C         5.5654348255       -1.1355262782       -1.8390068784
  F         6.3487156361       -0.2323517852       -2.4154611259
  F         5.2682420567       -2.0628029712       -2.8366198058
  F         6.2678337260       -1.7223063040       -0.8131073822
  O         4.3155861492       -0.6958910176       -1.4432565556
  C         3.9359344363        0.6441342260       -1.1840424917
  F         4.8531503146        1.2573484349       -0.3465142747
  F         3.9622458134        1.3661150698       -2.3375887855
  C         2.4821610715        0.6496875186       -0.5940774955
  F         1.9550514597        1.9201485504       -0.5435211873
  F         1.7530448240       -0.0928017189       -1.4502477344
  C         2.3015616584        0.1353290621        0.8391790573
  F         3.0223494464        0.7447517047        1.7971744414
  F         2.8282205288       -1.1267273072        0.8968374922
  O         0.8729094109        0.0150435717        0.9008208471
  C        -0.1317349165        0.4062154272        1.8010888547
  F        -0.5381637906       -0.8156937260        2.4651263777
  F         0.3782883218        1.2366549228        2.7742420486
  C        -1.3840343273        1.0021773531        1.1453976156
  O        -1.8163027041       -0.0313767750        0.2416570441
  C        -3.0896186525       -0.5985368067        0.6436093534
  C        -4.0720309816        0.4935370090        0.2471341131
  C        -5.5507635681        0.1753685273        0.6519322881
  O        -5.9385129586       -1.0240172585       -0.1001240341
  O        -3.9017537877        0.6624301181       -1.1430865271
  H        -1.2040918483        1.9223810337        0.5775155711
  H        -2.1020603721        1.2651517277        1.9073767810
  H        -3.1851660626       -1.5515321860        0.1144335829
  H        -3.0115676235       -0.7424271214        1.7293149071
  H        -3.7043605175        1.4220943311        0.7256963707
  H        -5.6275576915       -0.0481235364        1.7711722621
  H        -6.2154336801        1.0459087617        0.4311923726
  H        -6.2904056579       -1.6572391833        0.5840717117
  H        -4.6736418173        0.2747518222       -1.5527982479
      34
 i =      504, time =      504.000, E =      -403.3006379121
  C         5.5605789633       -1.1367538349       -1.8425282527
  F         6.3515983224       -0.2323244323       -2.4203894360
  F         5.2714996575       -2.0588356899       -2.8452767607
  F         6.2650315988       -1.7233171916       -0.8157422874
  O         4.3073138931       -0.6961937971       -1.4478374629
  C         3.9375282294        0.6449526796       -1.1858059181
  F         4.8556093730        1.2489274173       -0.3456103997
  F         3.9617004209        1.3573657322       -2.3355474202
  C         2.4787218993        0.6520491701       -0.5967023491
  F         1.9535324354        1.9242951163       -0.5415148959
  F         1.7495564444       -0.0921141112       -1.4454719015
  C         2.3045686439        0.1262100048        0.8394075524
  F         3.0282736582        0.7440317931        1.8070777217
  F         2.8325474356       -1.1243645229        0.8935713214
  O         0.8783787187        0.0225273244        0.9039644528
  C        -0.1323074568        0.4075455537        1.7999507557
  F        -0.5406706390       -0.8129657454        2.4636260877
  F         0.3698386782        1.2413506673        2.7779660196
  C        -1.3780009428        1.0027622193        1.1422072879
  O        -1.8067250153       -0.0364521313        0.2390014154
  C        -3.0895264656       -0.6017690332        0.6435460233
  C        -4.0690234813        0.4995202604        0.2564954321
  C        -5.5529403470        0.1732618251        0.6512863072
  O        -5.9358607247       -1.0234150650       -0.1000506349
  O        -3.9101560769        0.6629078598       -1.1426331935
  H        -1.2063725316        1.9246990543        0.5701835005
  H        -2.0996924896        1.2567554231        1.9138157557
  H        -3.2102258199       -1.5533856077        0.1065737229
  H        -3.0266999485       -0.7357978065        1.7443369982
  H        -3.7072945294        1.4335851424        0.7438270023
  H        -5.6222443925       -0.0228573555        1.7738002794
  H        -6.2132587149        1.0367274209        0.4551295443
  H        -6.2820326719       -1.6390844393        0.5650837368
  H        -4.7060535323        0.2949300515       -1.5518387239
      34
 i =      505, time =      505.000, E =      -403.3006967207
  C         5.5555564124       -1.1387092084       -1.8468263771
  F         6.3545922753       -0.2319508202       -2.4252560720
  F         5.2751187550       -2.0547516766       -2.8534053441
  F         6.2618160587       -1.7241730753       -0.8187468316
  O         4.2987234204       -0.6963006545       -1.4520029125
  C         3.9403540894        0.6457697879       -1.1874981382
  F         4.8577471399        1.2401779549       -0.3447245596
  F         3.9609473899        1.3487464656       -2.3336783863
  C         2.4756251998        0.6549822821       -0.5992118057
  F         1.9524629713        1.9284277105       -0.5397411112
  F         1.7458523611       -0.0915395396       -1.4408591702
  C         2.3071033817        0.1158993792        0.8401390671
  F         3.0336581846        0.7439471464        1.8170989319
  F         2.8367518213       -1.1225164297        0.8904615969
  O         0.8839582558        0.0300893166        0.9073006052
  C        -0.1322880161        0.4081599737        1.7999636802
  F        -0.5430892665       -0.8094523923        2.4619050488
  F         0.3613624975        1.2457688865        2.7815315767
  C        -1.3714950831        1.0024672677        1.1380958587
  O        -1.7971395000       -0.0414153627        0.2366093644
  C        -3.0887506884       -0.6042598104        0.6441001761
  C        -4.0668086261        0.5049554181        0.2662008553
  C        -5.5543594279        0.1710169955        0.6514498564
  O        -5.9335378198       -1.0224048041       -0.0996339113
  O        -3.9187557414        0.6637252464       -1.1424718140
  H        -1.2038316083        1.9267268547        0.5629399076
  H        -2.0989530355        1.2467444167        1.9249654009
  H        -3.2363512553       -1.5527763234        0.0994273218
  H        -3.0451616064       -0.7328072047        1.7563207933
  H        -3.7156564100        1.4424880732        0.7609303998
  H        -5.6150543723        0.0042601106        1.7652386388
  H        -6.2110555062        1.0249445782        0.4761983155
  H        -6.2742766957       -1.6219831682        0.5438318600
  H        -4.7390840269        0.3134174675       -1.5532425270
      34
 i =      506, time =      506.000, E =      -403.2994855243
  C         5.5504734583       -1.1412546057       -1.8519175672
  F         6.3576043501       -0.2312694466       -2.4299733816
  F         5.2791264685       -2.0505782586       -2.8609531687
  F         6.2581679927       -1.7249024472       -0.8221459792
  O         4.2899527977       -0.6963018000       -1.4557882767
  C         3.9441801319        0.6464695893       -1.1889795331
  F         4.8595573644        1.2311799587       -0.3438700400
  F         3.9600174131        1.3402840350       -2.3321057771
  C         2.4730120596        0.6584607234       -0.6014059323
  F         1.9518655274        1.9324952674       -0.5382015008
  F         1.7418723180       -0.0910780740       -1.4364741381
  C         2.3092300801        0.1049213738        0.8414433095
  F         3.0383674018        0.7443906312        1.8271770707
  F         2.8408281450       -1.1213126139        0.8875613817
  O         0.8896216637        0.0376843941        0.9107896044
  C        -0.1315988995        0.4081072212        1.8011643738
  F        -0.5453594056       -0.8051857741        2.4599754989
  F         0.3528487838        1.2499672408        2.7849490268
  C        -1.3647797608        1.0013671019        1.1332522072
  O        -1.7877015453       -0.0463568715        0.2345130829
  C        -3.0873644921       -0.6059279151        0.6453767842
  C        -4.0654915744        0.5098196344        0.2759830641
  C        -5.5547197965        0.1685986958        0.6523530721
  O        -5.9312370688       -1.0204344740       -0.0994250247
  O        -3.9278256163        0.6647835836       -1.1426716461
  H        -1.1968187431        1.9277222009        0.5565907867
  H        -2.0973380150        1.2348278680        1.9375710642
  H        -3.2623391015       -1.5486065303        0.0939236119
  H        -3.0657271776       -0.7335678710        1.7624061831
  H        -3.7291448908        1.4480192206        0.7760986986
  H        -5.6065320775        0.0303619185        1.7490284926
  H        -6.2111290514        1.0138619153        0.4922464677
  H        -6.2722040693       -1.6149396915        0.5297453148
  H        -4.7674383759        0.3326158957       -1.5536434429
      34
 i =      507, time =      507.000, E =      -403.2990659846
  C         5.5454316462       -1.1442312920       -1.8577875754
  F         6.3605355594       -0.2303162749       -2.4344471011
  F         5.2834684049       -2.0463975183       -2.8678142846
  F         6.2540672081       -1.7255255209       -0.8259653820
  O         4.2811379892       -0.6962942635       -1.4592452611
  C         3.9487366331        0.6469340307       -1.1901137614
  F         4.8610450098        1.2220661210       -0.3430561221
  F         3.9589519162        1.3319997058       -2.3309306394
  C         2.4710099428        0.6624224985       -0.6030976539
  F         1.9517605719        1.9364609835       -0.5368994107
  F         1.7375935914       -0.0907200060       -1.4323830055
  C         2.3109987014        0.0938246363        0.8433518090
  F         3.0422383855        0.7452631269        1.8371630630
  F         2.8447953120       -1.1208867377        0.8848929801
  O         0.8953439237        0.0452840880        0.9144107021
  C        -0.1301944257        0.4074463154        1.8035490472
  F        -0.5474204019       -0.8002145955        2.4578545094
  F         0.3443524978        1.2539898298        2.7882234413
  C        -1.3580869301        0.9995271366        1.1279083780
  O        -1.7785427665       -0.0513690611        0.2327369316
  C        -3.0854777964       -0.6066724407        0.6473609792
  C        -4.0651809896        0.5140409478        0.2855358301
  C        -5.5537994140        0.1660330005        0.6536957395
  O        -5.9287806096       -1.0172293099       -0.0997152978
  O        -3.9375662782        0.6660334533       -1.1432283769
  H        -1.1858594879        1.9270461836        0.5518378387
  H        -2.0924169291        1.2209128348        1.9482101791
  H        -3.2870094956       -1.5403759352        0.0905315098
  H        -3.0869305244       -0.7381265330        1.7614391279
  H        -3.7469228629        1.4504222919        0.7889714530
  H        -5.5973276447        0.0525255190        1.7312242696
  H        -6.2151234363        1.0061474509        0.5015647567
  H        -6.2786778732       -1.6228736253        0.5279424168
  H        -4.7876198142        0.3538536775       -1.5507557322
      34
 i =      508, time =      508.000, E =      -403.2987994992
  C         5.5405245098       -1.1474655111       -1.8643886764
  F         6.3632851540       -0.2291236024       -2.4386041517
  F         5.2880246850       -2.0423173752       -2.8738959977
  F         6.2494931611       -1.7260738704       -0.8302289956
  O         4.2724181395       -0.6963803364       -1.4624338405
  C         3.9537278593        0.6470459140       -1.1907819253
  F         4.8622406579        1.2129384807       -0.3422792885
  F         3.9578059940        1.3240061285       -2.3302238678
  C         2.4697237138        0.6667709976       -0.6041238300
  F         1.9521666870        1.9403044117       -0.5358392506
  F         1.7330271779       -0.0904458639       -1.4286347512
  C         2.3124473656        0.0831565125        0.8458612734
  F         3.0451419712        0.7464670080        1.8468410700
  F         2.8486871073       -1.1213685161        0.8824663066
  O         0.9010999442        0.0529016733        0.9181625585
  C        -0.1280643984        0.4062487960        1.8070697473
  F        -0.5492185566       -0.7946025496        2.4555670582
  F         0.3359803633        1.2578553214        2.7913503104
  C        -1.3515550525        0.9969700756        1.1222804532
  O        -1.7697889087       -0.0565211121        0.2312979138
  C        -3.0832152234       -0.6063657346        0.6499153221
  C        -4.0659726766        0.5175079156        0.2945321316
  C        -5.5515354608        0.1634578308        0.6550447285
  O        -5.9262832184       -1.0130781456       -0.1002614287
  O        -3.9479935654        0.6674832768       -1.1440297971
  H        -1.1715688584        1.9243664136        0.5490959321
  H        -2.0826391267        1.2052759691        1.9541868891
  H        -3.3093397194       -1.5283367935        0.0891464492
  H        -3.1072197108       -0.7464638391        1.7541414628
  H        -3.7677387153        1.4508697060        0.7997071578
  H        -5.5881246778        0.0682892080        1.7189765223
  H        -6.2232174797        1.0027852861        0.5032330783
  H        -6.2917040369       -1.6421018224        0.5347434428
  H        -4.7992340321        0.3771295344       -1.5439763367
      34
 i =      509, time =      509.000, E =      -403.2976889215
  C         5.5358364590       -1.1507741179       -1.8716397501
  F         6.3657629093       -0.2277219647       -2.4424259868
  F         5.2926719239       -2.0384289036       -2.8791794162
  F         6.2444249536       -1.7265868964       -0.8349554904
  O         4.2639391778       -0.6966653705       -1.4654076874
  C         3.9588459938        0.6466945824       -1.1908949823
  F         4.8632008473        1.2038508926       -0.3415200645
  F         3.9566428760        1.3164393534       -2.3300352518
  C         2.4692280637        0.6713790426       -0.6043547329
  F         1.9530991408        1.9440198943       -0.5350267292
  F         1.7282022673       -0.0902249189       -1.4252426248
  C         2.3136076301        0.0734314269        0.8489396669
  F         3.0470449857        0.7479058218        1.8560052570
  F         2.8525396023       -1.1228771747        0.8802838070
  O         0.9068719359        0.0605271121        0.9220546688
  C        -0.1252315865        0.4045999960        1.8116326110
  F        -0.5507152606       -0.7884192274        2.4531542376
  F         0.3277657886        1.2615821419        2.7943259217
  C        -1.3452001269        0.9936658088        1.1165329686
  O        -1.7615699131       -0.0618495382        0.2302114917
  C        -3.0806937188       -0.6048590696        0.6527967468
  C        -4.0679300137        0.5200958473        0.3026517887
  C        -5.5480541213        0.1611078403        0.6560374925
  O        -5.9240424842       -1.0086271704       -0.1005216066
  O        -3.9588562710        0.6691873763       -1.1448595418
  H        -1.1545809292        1.9197539890        0.5484009163
  H        -2.0677458654        1.1885961952        1.9541014415
  H        -3.3285611444       -1.5134596941        0.0890938916
  H        -3.1251430001       -0.7584974275        1.7429215876
  H        -3.7901524406        1.4511173345        0.8088246582
  H        -5.5795798628        0.0761369093        1.7178813886
  H        -6.2338877416        1.0027563180        0.4973135478
  H        -6.3061432143       -1.6634850009        0.5413846154
  H        -4.8053040066        0.4012877906       -1.5344355848
      34
 i =      510, time =      510.000, E =      -403.2965168190
  C         5.5314423974       -1.1539696875       -1.8794285541
  F         6.3678980495       -0.2261407685       -2.4459317343
  F         5.2973252492       -2.0347911044       -2.8837338144
  F         6.2388416728       -1.7270970805       -0.8401561594
  O         4.2558512954       -0.6972548045       -1.4682052524
  C         3.9637848093        0.6457814369       -1.1904041787
  F         4.8640142546        1.1948288388       -0.3407413247
  F         3.9555237375        1.3094358239       -2.3304009409
  C         2.4695631051        0.6760955257       -0.6037004631
  F         1.9545712174        1.9476130059       -0.5344698867
  F         1.7231653430       -0.0900178197       -1.4221682793
  C         2.3145126807        0.0650974769        0.8525347422
  F         3.0479941863        0.7494907828        1.8645224208
  F         2.8563802968       -1.1255110044        0.8783284116
  O         0.9126551986        0.0681386039        0.9260945334
  C        -0.1217449380        0.4025975123        1.8170984360
  F        -0.5518866369       -0.7817615004        2.4506776386
  F         0.3194212055        1.2651813127        2.7971640685
  C        -1.3389129348        0.9895411303        1.1107581263
  O        -1.7540137473       -0.0673670206        0.2294891109
  C        -3.0780070888       -0.6020023454        0.6556972752
  C        -4.0710642140        0.5217101615        0.3096189712
  C        -5.5436307089        0.1592364719        0.6566080781
  O        -5.9223214449       -1.0044818566       -0.1000527257
  O        -3.9697112475        0.6712288837       -1.1454366895
  H        -1.1354989611        1.9136517023        0.5494198080
  H        -2.0488723778        1.1719002294        1.9480488524
  H        -3.3441655859       -1.4972180784        0.0892572538
  H        -3.1394932705       -0.7740714605        1.7312822660
  H        -3.8127999871        1.4529300864        0.8169218985
  H        -5.5722752697        0.0757182821        1.7291962943
  H        -6.2444277481        1.0036690619        0.4848024942
  H        -6.3172325679       -1.6785887943        0.5403811479
  H        -4.8115324575        0.4244784101       -1.5245604129
      34
 i =      511, time =      511.000, E =      -403.2963280585
  C         5.5274076656       -1.1568659648       -1.8876159626
  F         6.3696345804       -0.2244073084       -2.4491059426
  F         5.3019440764       -2.0314422053       -2.8876981164
  F         6.2327265404       -1.7276234862       -0.8458340976
  O         4.2482979649       -0.6982484996       -1.4708517338
  C         3.9682536316        0.6442254757       -1.1893082229
  F         4.8647814906        1.1859025165       -0.3398964359
  F         3.9544961311        1.3031096984       -2.3313544139
  C         2.4707325211        0.6807543325       -0.6021141144
  F         1.9565916689        1.9510958902       -0.5341802426
  F         1.7179681702       -0.0897780797       -1.4193496291
  C         2.3152066316        0.0585075744        0.8565831527
  F         3.0480634700        0.7511463664        1.8723207050
  F         2.8602214964       -1.1293357398        0.8765193651
  O         0.9184626669        0.0757095758        0.9302758118
  C        -0.1176796011        0.4003506085        1.8232876146
  F        -0.5527219041       -0.7747511980        2.4482228821
  F         0.3109484490        1.2686572262        2.7998875380
  C        -1.3324764346        0.9845014202        1.1049645543
  O        -1.7472285077       -0.0730801182        0.2291349808
  C        -3.0752229824       -0.5976799837        0.6583142762
  C        -4.0753185793        0.5223375673        0.3152405066
  C        -5.5386105847        0.1580244149        0.6570512331
  O        -5.9212442823       -1.0010084105       -0.0986765801
  O        -3.9800996120        0.6736879606       -1.1454953949
  H        -1.1148733239        1.9067262669        0.5515494737
  H        -2.0284068819        1.1564574975        1.9376007253
  H        -3.3558492780       -1.4812143872        0.0883350680
  H        -3.1493744134       -0.7928946680        1.7227646014
  H        -3.8345998636        1.4574265576        0.8243464489
  H        -5.5666860547        0.0677363899        1.7491988571
  H        -6.2518736956        1.0028759947        0.4673710536
  H        -6.3223531777       -1.6827137537        0.5282629842
  H        -4.8239432680        0.4449995981       -1.5169226509
      34
 i =      512, time =      512.000, E =      -403.2972079504
  C         5.5237879242       -1.1592836231       -1.8960406767
  F         6.3709248433       -0.2225401894       -2.4519166132
  F         5.3065148175       -2.0284182182       -2.8912325092
  F         6.2260747550       -1.7281678377       -0.8519828736
  O         4.2414029176       -0.6997327281       -1.4733677622
  C         3.9719911459        0.6419673877       -1.1876557278
  F         4.8655977332        1.1771448757       -0.3389438912
  F         3.9535854963        1.2975419730       -2.3329232597
  C         2.4727041142        0.6851847430       -0.5995913546
  F         1.9591628478        1.9544812189       -0.5341726627
  F         1.7126603092       -0.0894552547       -1.4166897070
  C         2.3157535841        0.0538996536        0.8610181321
  F         3.0473272929        0.7528078481        1.8793788283
  F         2.8640509915       -1.1343715002        0.8747321847
  O         0.9243147853        0.0831940896        0.9345719715
  C        -0.1131345898        0.3979789476        1.8299888510
  F        -0.5532182212       -0.7675182048        2.4458914086
  F         0.3024745764        1.2720155779        2.8025248594
  C        -1.3256060278        0.9784624697        1.0990881892
  O        -1.7412907782       -0.0789997819        0.2291436006
  C        -3.0723936651       -0.5918595459        0.6604364691
  C        -4.0805646282        0.5220808291        0.3194331764
  C        -5.5333344169        0.1575198905        0.6578673637
  O        -5.9207777819       -0.9982894162       -0.0964868013
  O        -3.9897914825        0.6765933521       -1.1448943914
  H        -1.0932191687        1.8996487057        0.5540638431
  H        -2.0095504803        1.1436187972        1.9254043578
  H        -3.3634172833       -1.4667443719        0.0851842795
  H        -3.1541865476       -0.8143993539        1.7196340311
  H        -3.8548562176        1.4646228089        0.8309651397
  H        -5.5631585647        0.0536306201        1.7712767944
  H        -6.2538381159        0.9984303320        0.4470087897
  H        -6.3214053164       -1.6755199809        0.5057949858
  H        -4.8452823044        0.4622743671       -1.5126281776
      34
 i =      513, time =      513.000, E =      -403.2977696918
  C         5.5206279877       -1.1610566388       -1.9045261642
  F         6.3717270131       -0.2205562761       -2.4543369303
  F         5.3110296189       -2.0257652462       -2.8944855899
  F         6.2189055588       -1.7287123880       -0.8585840883
  O         4.2352608535       -0.7017732838       -1.4757764737
  C         3.9747789152        0.6389723596       -1.1855426616
  F         4.8665422972        1.1686575137       -0.3378533618
  F         3.9527969506        1.2927736153       -2.3351147838
  C         2.4754126671        0.6892221837       -0.5961676275
  F         1.9622812245        1.9577757319       -0.5344641074
  F         1.7072959756       -0.0889999136       -1.4140707201
  C         2.3162415049        0.0513875086        0.8657743698
  F         3.0458410260        0.7544208814        1.8857018087
  F         2.8678192518       -1.1405772397        0.8728834847
  O         0.9302192238        0.0905202870        0.9389397485
  C        -0.1082273731        0.3956103111        1.8369706220
  F        -0.5533770066       -0.7601935794        2.4437812901
  F         0.2941178696        1.2752675132        2.8051466695
  C        -1.3180185096        0.9713865724        1.0930422106
  O        -1.7362440171       -0.0851375043        0.2295007696
  C        -3.0695715971       -0.5846374197        0.6620007979
  C        -4.0866095251        0.5211555418        0.3222221033
  C        -5.5280891220        0.1576191137        0.6595420053
  O        -5.9207258355       -0.9961102041       -0.0938293924
  O        -3.9989170259        0.6799009751       -1.1436689821
  H        -1.0710548530        1.8928715493        0.5562668148
  H        -1.9954731377        1.1345944493        1.9143037175
  H        -3.3666814524       -1.4544339363        0.0791539293
  H        -3.1535716859       -0.8375833051        1.7219306951
  H        -3.8732419065        1.4734258468        0.8361668163
  H        -5.5618990460        0.0352281656        1.7888080096
  H        -6.2490451118        0.9896371855        0.4256896219
  H        -6.3169360700       -1.6612067839        0.4777618340
  H        -4.8729712112        0.4771263518       -1.5105304250
      34
 i =      514, time =      514.000, E =      -403.2973415437
  C         5.5179605701       -1.1620399448       -1.9128893801
  F         6.3720101730       -0.2184676176       -2.4563529597
  F         5.3154747751       -2.0235373444       -2.8976108357
  F         6.2112769890       -1.7292312786       -0.8656040736