      34
 i =      501, time =      501.000, E =      -403.2973904586
  C        -0.0115587093       -0.0228141681       -0.0141703350
  F         0.0128233474        0.0187102898       -0.0056212094
  F         0.0099314787        0.0033714528        0.0193611349
  F        -0.0151291705        0.0079801967       -0.0114662387
  O        -0.0219395556        0.0136461405        0.0146788996
  C         0.0383908819        0.0073496583       -0.0066860891
  F        -0.0123001646       -0.0009606538       -0.0006316126
  F        -0.0088370616       -0.0070728327        0.0069392325
  C        -0.0015347483        0.0108191069       -0.0108635486
  F         0.0127487945        0.0068099090       -0.0093525081
  F         0.0048947561       -0.0031842603       -0.0014743798
  C        -0.0170494978       -0.0588879712        0.0019810751
  F        -0.0075800635        0.0358034794        0.0081984350
  F        -0.0007184793       -0.0090971023       -0.0031560120
  O         0.0086684007        0.0108021548        0.0098258612
  C         0.0056366670       -0.0196762996        0.0203142424
  F        -0.0025534783        0.0299973729       -0.0081623249
  F        -0.0089363070       -0.0075341790       -0.0015032887
  C         0.0185560163       -0.0170085036       -0.0162177436
  O         0.0183111751        0.0080770351        0.0032560207
  C         0.0145477946        0.0089536748        0.0018156756
  C        -0.0132552591       -0.0147679757        0.0208025430
  C         0.0026353039       -0.0042694106       -0.0094277195
  O        -0.0186941633       -0.0073673107        0.0259324227
  O        -0.0105926857        0.0086904510       -0.0160049086
  H         0.0081204599        0.0003555055       -0.0018412052
  H        -0.0022360756       -0.0045289746        0.0094007480
  H        -0.0079408942       -0.0017720957       -0.0050451113
  H        -0.0104975040       -0.0052237809        0.0150014274
  H        -0.0075555330        0.0066487439        0.0069270798
  H         0.0042916679        0.0126619217       -0.0076876946
  H         0.0075106222       -0.0142887648        0.0057091614
  H         0.0095914260        0.0180917185       -0.0242301306
  H        -0.0051984588       -0.0067958174       -0.0098618473
      34
 i =      502, time =      502.000, E =      -403.2971958030
  C        -0.0091951056       -0.0220602957       -0.0161775222
  F         0.0104240653        0.0166119804       -0.0036175669
  F         0.0102150444        0.0035241863        0.0201203943
  F        -0.0152690770        0.0081854978       -0.0123652160
  O        -0.0187839832        0.0114889620        0.0139677770
  C         0.0371227111        0.0050861512       -0.0043571242
  F        -0.0118307347       -0.0014185403        0.0000404696
  F        -0.0088556545       -0.0027398222        0.0035807881
  C         0.0014377863        0.0125500278       -0.0067184883
  F         0.0144807413        0.0043211847       -0.0091072797
  F         0.0004234570       -0.0036768946       -0.0026166894
  C        -0.0152462510       -0.0505962515        0.0060967213
  F        -0.0131347459        0.0328975052        0.0046891160
  F        -0.0021270981       -0.0115771875        0.0000436608
  O         0.0064672059        0.0076029577        0.0091838712
  C         0.0088540534       -0.0190830945        0.0235261237
  F        -0.0007320066        0.0306387896       -0.0085872473
  F        -0.0036320564       -0.0114754384       -0.0046471586
  C         0.0188435802       -0.0207520013       -0.0219166092
  O         0.0127462178        0.0070811752        0.0050668916
  C         0.0163345809        0.0132520824        0.0051012655
  C        -0.0150922269       -0.0146031388        0.0176721759
  C         0.0057287928       -0.0027848571        0.0053234594
  O        -0.0210138820       -0.0088278946        0.0302270978
  O        -0.0007752139        0.0136173796       -0.0094159118
  H         0.0094212019        0.0009695629       -0.0019301225
  H        -0.0059993902       -0.0033150271        0.0134808231
  H        -0.0064495199       -0.0003163167       -0.0032924891
  H        -0.0097847169       -0.0063777585        0.0099124804
  H        -0.0092169403        0.0025278301        0.0039300163
  H         0.0047262570        0.0117131918       -0.0186842867
  H         0.0069975130       -0.0142134311        0.0027103887
  H         0.0106309531        0.0197377672       -0.0268730682
  H        -0.0121410747       -0.0100535807       -0.0131262399
      34
 i =      503, time =      503.000, E =      -403.2987273026
  C        -0.0066519476       -0.0202620601       -0.0177551598
  F         0.0075113417        0.0149188462       -0.0006326459
  F         0.0117434589        0.0041081587        0.0200335060
  F        -0.0153623780        0.0072810310       -0.0132486880
  O        -0.0146859753        0.0090225608        0.0138991097
  C         0.0342213819        0.0026011062       -0.0014910393
  F        -0.0121139100       -0.0072188031       -0.0001658796
  F        -0.0086462932        0.0018459080       -0.0014941588
  C         0.0047914279        0.0135908058       -0.0020823496
  F         0.0160442818        0.0017801919       -0.0089405962
  F        -0.0042909811       -0.0040697009       -0.0041935996
  C        -0.0132899774       -0.0404596558        0.0095543750
  F        -0.0169928719        0.0287384551        0.0045558085
  F        -0.0036314551       -0.0152360579        0.0032369749
  O         0.0047372013        0.0047233941        0.0077996304
  C         0.0118194586       -0.0182887898        0.0260732340
  F         0.0012852039        0.0306583699       -0.0086766400
  F        -0.0009602628       -0.0125738173       -0.0060140824
  C         0.0165220624       -0.0220853397       -0.0240709386
  O         0.0063019869        0.0057620619        0.0068886576
  C         0.0170852959        0.0159771890        0.0102557009
  C        -0.0169777104       -0.0137293748        0.0135940244
  C         0.0112128488       -0.0025666485        0.0152784166
  O        -0.0182063410       -0.0017101746        0.0250319344
  O         0.0003181476        0.0139055665       -0.0075566791
  H         0.0099587654        0.0005839091       -0.0011992333
  H        -0.0064092343       -0.0029113181        0.0135989103
  H        -0.0044685429        0.0021951227       -0.0009503706
  H        -0.0085966558       -0.0070151368        0.0018935962
  H        -0.0105410081       -0.0018612202        0.0006868238
  H         0.0045376978        0.0085940895       -0.0238301859
  H         0.0043265260       -0.0109975137       -0.0013076671
  H         0.0069511445        0.0127816517       -0.0200971599
  H        -0.0104591981       -0.0083689150       -0.0110209247
      34
 i =      504, time =      504.000, E =      -403.3006379121
  C        -0.0040351874       -0.0176189306       -0.0188035072
  F         0.0042606015        0.0132589077        0.0023616177
  F         0.0138423737        0.0044698804        0.0202323135
  F        -0.0158303392        0.0059353875       -0.0141541586
  O        -0.0102616154        0.0063179502        0.0133973722
  C         0.0298257794       -0.0000325676        0.0017237539
  F        -0.0123028416       -0.0125767586       -0.0006905916
  F        -0.0079508555        0.0049806633       -0.0065988846
  C         0.0082905518        0.0138338708        0.0027935194
  F         0.0172144882       -0.0005350043       -0.0089031126
  F        -0.0082596939       -0.0043283539       -0.0062454556
  C        -0.0114321356       -0.0288453938        0.0121770616
  F        -0.0206655508        0.0243254598        0.0045157566
  F        -0.0046915601       -0.0197084690        0.0059906110
  O         0.0035545938        0.0025230072        0.0062091028
  C         0.0143306290       -0.0173257671        0.0278638853
  F         0.0033781375        0.0300733624       -0.0084528855
  F        -0.0010161508       -0.0106269575       -0.0060659606
  C         0.0114376438       -0.0212985586       -0.0222979494
  O         0.0002523827        0.0036157193        0.0084996580
  C         0.0165482980        0.0179489452        0.0149479773
  C        -0.0191882890       -0.0132682121        0.0083300475
  C         0.0183422918       -0.0033437772        0.0195970430
  O        -0.0106199605        0.0131590623        0.0110712692
  O        -0.0063648096        0.0109526188       -0.0094147159
  H         0.0097952521       -0.0005895918        0.0001797455
  H        -0.0033082059       -0.0032803198        0.0095698819
  H        -0.0021649603        0.0050030684        0.0014494153
  H        -0.0067636492       -0.0073921654       -0.0061723980
  H        -0.0110268936       -0.0052573644       -0.0020868596
  H         0.0038126208        0.0037609468       -0.0227321575
  H         0.0000573777       -0.0052850366       -0.0058272498
  H        -0.0012534754       -0.0021401647       -0.0045991914
  H        -0.0012570712       -0.0034349428       -0.0048011767
      34
 i =      505, time =      505.000, E =      -403.3006967207
  C        -0.0014622350       -0.0142832500       -0.0191984699
  F         0.0006939252        0.0117847492        0.0057179778
  F         0.0148808227        0.0034234736        0.0222383283
  F        -0.0165622140        0.0048443661       -0.0151100887
  O        -0.0058093461        0.0034089178        0.0122567156
  C         0.0242123383       -0.0028397557        0.0051036383
  F        -0.0125422066       -0.0095168170       -0.0011993199
  F        -0.0067755865        0.0060055380       -0.0113506511
  C         0.0117059665        0.0132012889        0.0076334871
  F         0.0180745243       -0.0024903984       -0.0089669646
  F        -0.0105670060       -0.0043310405       -0.0087190251
  C        -0.0098777839       -0.0161558758        0.0138645441
  F        -0.0258588330        0.0202231324        0.0021799001
  F        -0.0049037324       -0.0246705713        0.0080225018
  O         0.0027046008        0.0010669085        0.0049288919
  C         0.0162114604       -0.0161508583        0.0287534206
  F         0.0056858991        0.0288439047       -0.0079842708
  F        -0.0014372108       -0.0084190307       -0.0056712911
  C         0.0050706512       -0.0194925600       -0.0177255821
  O        -0.0047584239        0.0007004969        0.0095377567
  C         0.0147769762        0.0199151926        0.0174891411
  C        -0.0217339564       -0.0138213019        0.0018588203
  C         0.0256292242       -0.0041993490        0.0179057875
  O        -0.0007144020        0.0309595993       -0.0067021718
  O        -0.0151630011        0.0077699992       -0.0116480884
  H         0.0090848970       -0.0020974646        0.0018171493
  H         0.0017787419       -0.0038711718        0.0029579488
  H         0.0002795171        0.0072332906        0.0033371811
  H        -0.0042741691       -0.0076208244       -0.0119828041
  H        -0.0104148568       -0.0068498888       -0.0039312168
  H         0.0027065596       -0.0020633433       -0.0155381906
  H        -0.0046253005        0.0014224382       -0.0101995526
  H        -0.0115459122       -0.0204327400        0.0145566068
  H         0.0094997434        0.0014444444        0.0020373983
      34
 i =      506, time =      506.000, E =      -403.2994855243
  C         0.0009959631       -0.0104406113       -0.0188535676
  F        -0.0030964901        0.0104076550        0.0093275186
  F         0.0127980124        0.0002803844        0.0262953415
  F        -0.0173354285        0.0040703544       -0.0160923452
  O        -0.0014248697        0.0002799730        0.0105893478
  C         0.0176828855       -0.0056975749        0.0084041837
  F        -0.0123521445       -0.0044357843       -0.0015547169
  F        -0.0051893121        0.0068198273       -0.0152199174
  C         0.0147916045        0.0117005056        0.0121621771
  F         0.0188582888       -0.0038996708       -0.0090950871
  F        -0.0114371440       -0.0039592862       -0.0112539538
  C        -0.0086683017       -0.0028742567        0.0146278098
  F        -0.0320975068        0.0164276168       -0.0035284567
  F        -0.0041798109       -0.0297887394        0.0088765684
  O         0.0018978225        0.0001488682        0.0042598173
  C         0.0173173117       -0.0147221260        0.0286616908
  F         0.0080084582        0.0269789196       -0.0073305744
  F         0.0006673438       -0.0067303777       -0.0054770937
  C        -0.0005444735       -0.0179090108       -0.0121082621
  O        -0.0090026585       -0.0022792628        0.0103233249
  C         0.0121160511        0.0223579271        0.0171292070
  C        -0.0243644723       -0.0155633443       -0.0055543354
  C         0.0310043199       -0.0035681434        0.0106382120
  O         0.0050211657        0.0398200215       -0.0160965339
  O        -0.0216310482        0.0061763969       -0.0115090050
  H         0.0080172208       -0.0033954299        0.0032426776
  H         0.0067163805       -0.0040599870       -0.0039951078
  H         0.0026764473        0.0082496527        0.0042898006
  H        -0.0012956620       -0.0077157531       -0.0143272739
  H        -0.0087142425       -0.0063547891       -0.0046634737
  H         0.0013857858       -0.0080005975       -0.0032384196
  H        -0.0079653146        0.0068426059       -0.0136719383
  H        -0.0173623538       -0.0304271015        0.0249546329
  H         0.0166035366        0.0041430141        0.0066809529
      34
 i =      507, time =      507.000, E =      -403.2990659846
  C         0.0032602156       -0.0062343327       -0.0176982363
  F        -0.0069543629        0.0091709240        0.0121258348
  F         0.0082076133       -0.0038520522        0.0298447713
  F        -0.0181220915        0.0028613322       -0.0170096538
  O         0.0030621624       -0.0030186495        0.0086553295
  C         0.0105237879       -0.0085346990        0.0112824501
  F        -0.0111811190       -0.0005285262       -0.0014200223
  F        -0.0030796312        0.0111334314       -0.0179345994
  C         0.0173301571        0.0093617850        0.0161114761
  F         0.0195698348       -0.0046826283       -0.0092639491
  F        -0.0110160627       -0.0032136783       -0.0131294388
  C        -0.0077454989        0.0103758455        0.0145481102
  F        -0.0370434522        0.0126893562       -0.0117933295
  F        -0.0028861182       -0.0347557723        0.0092562134
  O         0.0010886815        0.0005769499        0.0042166073
  C         0.0175641398       -0.0129903026        0.0275008421
  F         0.0100646945        0.0245399889       -0.0063741269
  F         0.0047539849       -0.0060155524       -0.0056497885
  C        -0.0038963397       -0.0173593923       -0.0068773631
  O        -0.0130575965       -0.0045101455        0.0108716318
  C         0.0090992074        0.0254481342        0.0138020957
  C        -0.0266837067       -0.0182611393       -0.0134708467
  C         0.0325250542       -0.0002293540        0.0001530324
  O         0.0013199434        0.0305059152       -0.0082507128
  O        -0.0221417833        0.0064479635       -0.0078905645
  H         0.0067677967       -0.0040706895        0.0040854967
  H         0.0098665794       -0.0034979593       -0.0094718287
  H         0.0047541327        0.0077371875        0.0040773708
  H         0.0018571469       -0.0076764395       -0.0128608421
  H        -0.0061715536       -0.0039729820       -0.0043414867
  H        -0.0000029782       -0.0130016305        0.0112881632
  H        -0.0083285911        0.0088418399       -0.0155411602
  H        -0.0133113343       -0.0229446669        0.0174791544
  H         0.0174045898        0.0041404164        0.0079060856
      34
 i =      508, time =      508.000, E =      -403.2987994992
  C         0.0053036103       -0.0018007711       -0.0157344871
  F        -0.0104092299        0.0080016641        0.0128360193
  F         0.0034829821       -0.0073394545        0.0305681701
  F        -0.0189223156        0.0013525977       -0.0177245749
  O         0.0077679784       -0.0064159501        0.0069245338
  C         0.0030721874       -0.0112134695        0.0134379853
  F        -0.0090161451        0.0015336725       -0.0006743023
  F        -0.0006584635        0.0163430409       -0.0198411368
  C         0.0191382694        0.0062830667        0.0192519076
  F         0.0201544798       -0.0048992731       -0.0094825414
  F        -0.0098983285       -0.0020370109       -0.0136367942
  C        -0.0069815555        0.0228289948        0.0137725909
  F        -0.0383137151        0.0089960052       -0.0196751114
  F        -0.0015048838       -0.0393211300        0.0093498669
  O         0.0005150271        0.0002532518        0.0045228045
  C         0.0170129544       -0.0109245622        0.0252286142
  F         0.0115430988        0.0218752223       -0.0048006224
  F         0.0060332556       -0.0053099677       -0.0057919395
  C        -0.0042836392       -0.0180883024       -0.0028942936
  O        -0.0172478405       -0.0056876170        0.0113702458
  C         0.0062681957        0.0290485109        0.0079179714
  C        -0.0282179676       -0.0212796329       -0.0212217382
  C         0.0294703929        0.0054511200       -0.0086234674
  O        -0.0082764859        0.0096680841        0.0092211995
  O        -0.0140410526        0.0081997048       -0.0009133868
  H         0.0054796527       -0.0039262514        0.0041583259
  H         0.0103922226       -0.0021187023       -0.0123154723
  H         0.0063156271        0.0057654045        0.0027070235
  H         0.0048063977       -0.0075091190       -0.0079680987
  H        -0.0032461314       -0.0004058711       -0.0032874353
  H        -0.0013370570       -0.0160815894        0.0226569010
  H        -0.0052336724        0.0067714985       -0.0154149709
  H        -0.0028705836       -0.0043779158       -0.0003247475
  H         0.0112633128        0.0017926234        0.0056097863
      34
 i =      509, time =      509.000, E =      -403.2976889215
  C         0.0071168657        0.0027363967       -0.0130173334
  F        -0.0131193622        0.0068756250        0.0121035755
  F         0.0002330572       -0.0095987074        0.0279155294
  F        -0.0197231043        0.0001088224       -0.0181570015
  O         0.0126112385       -0.0098160688        0.0056846118
  C        -0.0043409417       -0.0136003473        0.0146182076
  F        -0.0056205572        0.0025094283        0.0007472918
  F         0.0016840605        0.0215677108       -0.0212253605
  C         0.0201093161        0.0026250593        0.0214281915
  F         0.0206631501       -0.0046858133       -0.0097904148
  F        -0.0081183941       -0.0005301822       -0.0121684204
  C        -0.0061781964        0.0336764980        0.0125077927
  F        -0.0365232922        0.0055962461       -0.0247757113
  F        -0.0004518601       -0.0430848792        0.0086962426
  O         0.0003634612       -0.0004497501        0.0047646729
  C         0.0158280273       -0.0085619492        0.0218588168
  F         0.0124573999        0.0181658342       -0.0024421932
  F        -0.0049782586       -0.0048879454       -0.0052637649
  C        -0.0016396878       -0.0198604601       -0.0006622725
  O        -0.0213744485       -0.0060965498        0.0117393335
  C         0.0039973433        0.0326821268        0.0004624601
  C        -0.0284894094       -0.0235692589       -0.0278990135
  C         0.0228056249        0.0115864455       -0.0102200588
  O        -0.0167587405       -0.0098567467        0.0235101505
  O         0.0002492430        0.0108804821        0.0081455586
  H         0.0042541090       -0.0030267036        0.0034818596
  H         0.0080859606       -0.0000328945       -0.0121224440
  H         0.0073480207        0.0027720597        0.0004386484
  H         0.0072587051       -0.0071925297       -0.0008521192
  H        -0.0004750154        0.0031795999       -0.0020726919
  H        -0.0025195517       -0.0167933177        0.0252114029
  H         0.0002646182        0.0019131187       -0.0133908956
  H         0.0068052770        0.0127567775       -0.0155303376
  H        -0.0003219501       -0.0019657858        0.0006793852
      34
 i =      510, time =      510.000, E =      -403.2965168190
  C         0.0086986261        0.0072452429       -0.0096493865
  F        -0.0152634823        0.0058304671        0.0126952463
  F        -0.0013209953       -0.0110625197        0.0225958730
  F        -0.0203655811       -0.0006211543       -0.0182755159
  O         0.0172378359       -0.0130363100        0.0048720283
  C        -0.0113775550       -0.0155612300        0.0146494766
  F        -0.0017679835        0.0036657344        0.0025329667
  F         0.0035049295        0.0259390516       -0.0225073291
  C         0.0201984723       -0.0013962206        0.0225636933
  F         0.0209982869       -0.0042208032       -0.0102315229
  F        -0.0061362122        0.0012498741       -0.0097910409
  C        -0.0051102863        0.0422197662        0.0109743002
  F        -0.0336936407        0.0027042724       -0.0275272261
  F         0.0000193394       -0.0456019714        0.0056039680
  O         0.0007805617       -0.0013066583        0.0045602075
  C         0.0140088403       -0.0059168999        0.0175108875
  F         0.0128702321        0.0135007619        0.0008363861
  F        -0.0049079979       -0.0047197470       -0.0043912103
  C         0.0036144387       -0.0221510130       -0.0004534099
  O        -0.0248602601       -0.0063080498        0.0118750817
  C         0.0023597012        0.0354800348       -0.0068636094
  C        -0.0271168666       -0.0238909985       -0.0325753186
  C         0.0144451500        0.0159605586       -0.0030848323
  O        -0.0207632594       -0.0216658947        0.0292568038
  O         0.0150469598        0.0134654729        0.0167183495
  H         0.0031360142       -0.0016722538        0.0022565737
  H         0.0032342173        0.0025459859       -0.0089296800
  H         0.0079651312       -0.0004833515       -0.0022053266
  H         0.0090791796       -0.0066008046        0.0063417489
  H         0.0017220695        0.0054520637       -0.0013665918
  H        -0.0034848468       -0.0153650216        0.0176492608
  H         0.0062856824       -0.0034654112       -0.0099959281
  H         0.0121256991        0.0223038618       -0.0225798704
  H        -0.0125596668       -0.0054230380       -0.0045453717
      34
 i =      511, time =      511.000, E =      -403.2963280585
  C         0.0100460557        0.0115863706       -0.0057446743
  F        -0.0170884246        0.0051180467        0.0139205295
  F        -0.0018413047       -0.0124414775        0.0164620160
  F        -0.0205494331       -0.0006871795       -0.0180292521
  O         0.0212278284       -0.0158183620        0.0042067560
  C        -0.0177034482       -0.0169970309        0.0134726590
  F         0.0018765539        0.0064591282        0.0041223470
  F         0.0044790613        0.0290405348       -0.0235637570
  C         0.0194190422       -0.0055290031        0.0226685648
  F         0.0210883671       -0.0037355867       -0.0108007573
  F        -0.0042384556        0.0031814817       -0.0060779923
  C        -0.0035585260        0.0479796560        0.0093580309
  F        -0.0308425774        0.0002258463       -0.0283421237
  F        -0.0004481859       -0.0463723807        0.0008372904
  O         0.0014398456       -0.0027880367        0.0037046087
  C         0.0116119212       -0.0030201112        0.0123958517
  F         0.0129790310        0.0085272425        0.0047207386
  F        -0.0000427370       -0.0045016565       -0.0032987679
  C         0.0105039752       -0.0241895308       -0.0020042457
  O        -0.0273298805       -0.0066611950        0.0116976878
  C         0.0010944622        0.0362653087       -0.0119782765
  C        -0.0240065982       -0.0214032878       -0.0345898662
  C         0.0061982855        0.0171278926        0.0090289637
  O        -0.0196921844       -0.0243290042        0.0262374464
  O         0.0224600252        0.0143924250        0.0212738045
  H         0.0020894684       -0.0003090486        0.0007815383
  H        -0.0032689280        0.0052901759       -0.0035516079
  H         0.0083611530       -0.0031157129       -0.0045274795
  H         0.0102978574       -0.0054475116        0.0109440590
  H         0.0031357166        0.0054846920       -0.0016371301
  H        -0.0041884622       -0.0124408586        0.0042161915
  H         0.0111359027       -0.0074203678       -0.0059540639
  H         0.0123282986        0.0229943763       -0.0210260297
  H        -0.0181379843       -0.0065952066       -0.0067920010
      34
 i =      512, time =      512.000, E =      -403.2972079504
  C         0.0111309226        0.0156054577       -0.0014711962
  F        -0.0186899880        0.0044722652        0.0149473569
  F        -0.0021420350       -0.0142068556        0.0107719548
  F        -0.0198126118       -0.0000076081       -0.0173247062
  O         0.0242816524       -0.0179400297        0.0034606725
  C        -0.0229913516       -0.0178397897        0.0111494690
  F         0.0049136616        0.0103494715        0.0052836859
  F         0.0046750155        0.0306092610       -0.0238435042
  C         0.0178402610       -0.0095129797        0.0218105476
  F         0.0209532136       -0.0034774956       -0.0114502003
  F        -0.0021624408        0.0050742798       -0.0015674850
  C        -0.0014290339        0.0507343749        0.0077769953
  F        -0.0287223247       -0.0018551762       -0.0281499783
  F        -0.0023447963       -0.0448006579       -0.0023556949
  O         0.0016871811       -0.0051052690        0.0023094612
  C         0.0087682393        0.0000732131        0.0067911612
  F         0.0129247039        0.0035087623        0.0084760875
  F         0.0044864958       -0.0040748821       -0.0005939567
  C         0.0173597791       -0.0251023274       -0.0041059930
  O        -0.0287312964       -0.0070317961        0.0112397611
  C        -0.0001754921        0.0339319633       -0.0135047278
  C        -0.0193384486       -0.0161841849       -0.0339816951
  C        -0.0007473682        0.0146154736        0.0207827693
  O        -0.0133682339       -0.0174065011        0.0150797918
  O         0.0182624993        0.0129708654        0.0201353789
  H         0.0010364076        0.0006102824       -0.0006326146
  H        -0.0097088154        0.0077489822        0.0022260061
  H         0.0087433846       -0.0043872571       -0.0058499243
  H         0.0110251209       -0.0034114826        0.0110256047
  H         0.0038003175        0.0032642398       -0.0028787110
  H        -0.0046074583       -0.0087288562       -0.0092368154
  H         0.0137279298       -0.0088320561       -0.0019439815
  H         0.0071538094        0.0144633445       -0.0113057917
  H        -0.0128999702       -0.0049219660       -0.0044627102
      34
 i =      513, time =      513.000, E =      -403.2977696918
  C         0.0119228569        0.0191172280        0.0029599389
  F        -0.0198738441        0.0040108869        0.0154809201
  F        -0.0026668402       -0.0162767162        0.0048950377
  F        -0.0175902594        0.0009825532       -0.0160355008
  O         0.0263420410       -0.0191866043        0.0026667417
  C        -0.0269721439       -0.0180290331        0.0078693552
  F         0.0066638690        0.0120500314        0.0060448708
  F         0.0043923771        0.0307151710       -0.0233545069
  C         0.0155711088       -0.0131198414        0.0201066204
  F         0.0207165280       -0.0036754453       -0.0122001760
  F         0.0004083211        0.0068176480        0.0031569868
  C         0.0012557464        0.0505503874        0.0062918551
  F        -0.0275181382       -0.0037708478       -0.0266277128
  F        -0.0057233397       -0.0403921980       -0.0032856467
  O         0.0010369358       -0.0082448552        0.0010606031
  C         0.0055855694        0.0033088240        0.0010232570
  F         0.0129078231       -0.0015350936        0.0114956515
  F         0.0062949811       -0.0033232285        0.0024934910
  C         0.0220282021       -0.0241074652       -0.0047273435
  O        -0.0292957456       -0.0070390261        0.0106151642
  C        -0.0015905421        0.0280510121       -0.0117947246
  C        -0.0134890842       -0.0092520631       -0.0314896853
  C        -0.0057891807        0.0087059890        0.0288165540
  O        -0.0021638245       -0.0017503859       -0.0026845982
  O         0.0063717238        0.0102701528        0.0151250924
  H        -0.0000516278        0.0007856501       -0.0017725367
  H        -0.0138882363        0.0094318080        0.0059927612
  H         0.0091960338       -0.0040089526       -0.0057897150
  H         0.0112816044       -0.0003923822        0.0066749748
  H         0.0039796657       -0.0003046850       -0.0046207893
  H        -0.0047527670       -0.0048164906       -0.0188446130
  H         0.0135722284       -0.0073175267        0.0015169612
  H        -0.0030204646       -0.0024705472        0.0050835345
  H        -0.0004247356       -0.0018873814        0.0006082412
      34
 i =      514, time =      514.000, E =      -403.2973415437
  C         0.0123565940        0.0219094433        0.0072729572
  F        -0.0206646636        0.0037847441        0.0155635268
  F        -0.0036088807       -0.0185410851        0.0003155437
  F        -0.0140310145        0.0014310836       -0.0141132454