34
Lattice="22.698 0.0 0.0 0.0 13.945 0.0 0.0 0.0 14.718" Properties=species:S:1:pos:R:3:forces:R:3 energy=-10974.281063778899 pbc="T T T"
C        5.57421714      -1.13565645      -1.83409929      -0.59437273      -1.17315169      -0.72866792
F        6.34361481      -0.23119345      -2.40573202       0.65940304       0.96212178      -0.28905421
F        5.26260699      -2.07043093      -2.81773409       0.51069717       0.17336707       0.99558959
F        6.27223684      -1.71969047      -0.80885248      -0.77797323       0.41035821      -0.58961770
O        4.33063733      -0.69436960      -1.43279956      -1.12817731       0.70171276       0.75481937
C        3.93710763       0.64292232      -1.18081881       1.97413852       0.37793463      -0.34381252
F        4.84729052       1.27377638      -0.34832963      -0.63249989      -0.04939880      -0.03247883
F        3.96265373       1.38363861      -2.34165604      -0.45441998      -0.36369968       0.35682968
C        2.48949467       0.64660548      -0.58927736      -0.07891993       0.55634085      -0.55862613
F        1.95930568       1.91206125      -0.54823858       0.65556937       0.35017960      -0.48092530
F        1.75980852      -0.09448552      -1.46008677       0.25169848      -0.16374125      -0.07581566
C        2.29381990       0.14813443       0.83976327      -0.87672043      -3.02814123       0.10187098
F        3.00927046       0.74855168       1.77772829      -0.38978254       1.84108893       0.42158048
F        2.81932149      -1.13255100       0.90354004      -0.03694569      -0.46779181      -0.16228866
O        0.86246515       0.00060479       0.89530217       0.44574709       0.55546913       0.50526610
C       -0.12924759       0.40125590       1.80649100       0.28984907      -1.01179601       1.04460034
F       -0.53310208      -0.81874825       2.46744951      -0.13130513       1.54252693      -0.41972362
F        0.39504260       1.22630701       2.76635863      -0.45952338      -0.38742306      -0.07730221
C       -1.39395768       0.99832574       1.14888424       0.95418872      -0.87461242      -0.83394991
O       -1.83467196      -0.02064910       0.24755267       0.94159848       0.41533784       0.16743132
C       -3.08771672      -0.59020493       0.64479404       0.74807768       0.46041647       0.09336579
C       -4.08007208       0.47983298       0.23026460      -0.68161283      -0.75939984       1.06970977
C       -5.54524698       0.17925484       0.65470642       0.13551277      -0.21954192      -0.48479283
O       -5.94559825      -1.02560147      -0.09778098      -0.96129253      -0.37884235       1.33349879
O       -3.88495352       0.66275935      -1.14475386      -0.54469780       0.44688096      -0.82300549
H       -1.18508881       1.91879710       0.59004901       0.41757084       0.01828083      -0.09467858
H       -2.11605902       1.27744642       1.91452245      -0.11498363      -0.23288924       0.48340590
H       -3.14262044      -1.54582000       0.12759699      -0.40833720      -0.09112482      -0.25943005
H       -2.99458262      -0.76573138       1.70601424      -0.53980336      -0.26861761       0.77140441
H       -3.71340683       1.39852467       0.69204578      -0.38852113       0.34189216       0.35620476
H       -5.63139058      -0.08442951       1.73325879       0.22068644       0.65110219      -0.39531715
H       -6.21207979       1.04644822       0.38336482       0.38621172      -0.73475783       0.29357688
H       -6.29507541      -1.67124971       0.58903447       0.49321095       0.93031357      -1.24596341
H       -4.62509155       0.22120758      -1.57202841      -0.26731550      -0.34945498      -0.50711658
34
Lattice="22.698 0.0 0.0 0.0 13.945 0.0 0.0 0.0 14.718" Properties=species:S:1:pos:R:3:forces:R:3 energy=-10974.275766919298 pbc="T T T"
C        5.57001590      -1.13513572      -1.83621895      -0.47283134      -1.13438601      -0.83188164
F        6.34602911      -0.23198953      -2.41054934       0.53602699       0.85422238      -0.18602277
F        5.26529114      -2.06666297      -2.82743967       0.52527870       0.18122095       1.03463227
F        6.27023466      -1.72110527      -0.81081847      -0.78516751       0.42091522      -0.63584497
O        4.32340299      -0.69530845      -1.43824463      -0.96591125       0.59078618       0.71825197
C        3.93575429       0.64342322      -1.18234066       1.90892656       0.26154041      -0.22405233
F        4.85037490       1.26558093      -0.34742248      -0.60836084      -0.07294428       0.00208103
F        3.96256541       1.37491261      -2.33966917      -0.45537606      -0.14088732       0.18413153
C        2.48579817       0.64788729      -0.59153866       0.07393394       0.64534838      -0.34547856
F        1.95698948       1.91604847      -0.54576096       0.74462966       0.22220425      -0.46831515
F        1.75642114      -0.09359561      -1.45513308       0.02177503      -0.18907352      -0.13455558
C        2.29800568       0.14277678       0.83934524      -0.78399375      -2.60176386       0.31350601
F        3.01598146       0.74622213       1.78739014      -0.67541579       1.69165773       0.24112404
F        2.82379879      -1.12948798       0.90018820      -0.10937978      -0.59532292       0.00224513
O        0.86758701       0.00770629       0.89791911       0.33255710       0.39095980       0.47225364
C       -0.13067413       0.40412981       1.80330401       0.45529373      -0.98129217       1.20976192
F       -0.53562338      -0.81762106       2.46640008      -0.03764129       1.57550991      -0.44157401
F        0.38671289       1.23163081       2.77036102      -0.18676785      -0.59009077      -0.23896650
C       -1.38938521       1.00068017       1.14759360       0.96897585      -1.06711081      -1.12699736
O       -1.82568497      -0.02612273       0.24452629       0.65543687       0.36412867       0.26055004
C       -3.08900507      -0.59464458       0.64409633       0.83995792       0.68144948       0.26231762
C       -4.07573981       0.48698661       0.23833435      -0.77607351      -0.75092359       0.90873982
C       -5.54812360       0.17736920       0.65320940       0.29458637      -0.14320311       0.27374329
O       -5.94172978      -1.02467249      -0.09942118      -1.08057726      -0.45394859       1.55433986
O       -3.89334163       0.66238359      -1.14377420      -0.03986310       0.70023381      -0.48418565
H       -1.19690907       1.92035044       0.58425733       0.48445768       0.04985693      -0.09925089
H       -2.10758313       1.27211497       1.90763172      -0.30850105      -0.17046555       0.69321180
H       -3.16230590      -1.54859824       0.12182563      -0.33164765      -0.01626566      -0.16930660
H       -3.00066691      -0.75250956       1.71522492      -0.50315037      -0.32795753       0.50972024
H       -3.70661520       1.40968735       0.70790382      -0.47395413       0.12998625       0.20208956
H       -5.63063736      -0.06915937       1.75681409       0.24303391       0.60231654      -0.96078465
H       -6.21547896       1.04967670       0.40661152       0.35982659      -0.73088401       0.13937379
H       -6.29535702      -1.66910230       0.59316708       0.54666559       1.01495680      -1.38186873
H       -4.64637853       0.25045409      -1.55918270      -0.62431916      -0.51697591      -0.67497839
34
Lattice="22.698 0.0 0.0 0.0 13.945 0.0 0.0 0.0 14.718" Properties=species:S:1:pos:R:3:forces:R:3 energy=-10974.317441157335 pbc="T T T"
C        5.56543483      -1.13552628      -1.83900688      -0.34205690      -1.04191702      -0.91300703
F        6.34871564      -0.23235179      -2.41546113       0.38624872       0.76715792      -0.03253196
F        5.26824206      -2.06280297      -2.83661981       0.60387294       0.21125001       1.03016430
F        6.26783373      -1.72230630      -0.81310738      -0.78996524       0.37440567      -0.68127493
O        4.31558615      -0.69589102      -1.44325656      -0.75518321       0.46395873       0.71472096
C        3.93593444       0.64413423      -1.18404249       1.75973421       0.13375426      -0.07667232
F        4.85315031       1.25734843      -0.34651427      -0.62292230      -0.37120578      -0.00852987
F        3.96224581       1.36611507      -2.33758879      -0.44461027       0.09492041      -0.07683273
C        2.48216107       0.64968752      -0.59407750       0.24638513       0.69886733      -0.10707872
F        1.95505146       1.92014855      -0.54352119       0.82503014       0.09154115      -0.45974394
F        1.75304482      -0.09280172      -1.45024773      -0.22065112      -0.20927243      -0.21564356
C        2.30156166       0.13532906       0.83917906      -0.68339811      -2.08051915       0.49130572
F        3.02234945       0.74475170       1.79717444      -0.87380861       1.47779078       0.23426909
F        2.82822053      -1.12672731       0.89683749      -0.18673693      -0.78346960       0.16645194
O        0.87290941       0.01504357       0.90082085       0.24359668       0.24288669       0.40107312
C       -0.13173492       0.40621543       1.80108885       0.60778100      -0.94044738       1.34073960
F       -0.53816379      -0.81569373       2.46512638       0.06608784       1.57651677      -0.44617077
F        0.37828832       1.23665492       2.77424205      -0.04937870      -0.64657168      -0.30925655
C       -1.38403433       1.00217735       1.14539762       0.84959861      -1.13567383      -1.23777743
O       -1.81630270      -0.03137678       0.24165704       0.32406120       0.29629714       0.35422902
C       -3.08961865      -0.59853681       0.64360935       0.87856124       0.82158009       0.52736934
C       -4.07203098       0.49353701       0.24713411      -0.87302897      -0.70599284       0.69903284
C       -5.55076357       0.17536853       0.65193229       0.57658787      -0.13198237       0.78564777
O       -5.93851296      -1.02401726      -0.10012403      -0.93620770      -0.08794071       1.28719382
O       -3.90175379       0.66243012      -1.14308653       0.01635981       0.71505298      -0.38858006
H       -1.20409185       1.92238103       0.57751557       0.51210031       0.03002581      -0.06166706
H       -2.10206037       1.26515173       1.90737678      -0.32957608      -0.14970600       0.69928408
H       -3.18516606      -1.55153219       0.11443358      -0.22978171       0.11287775      -0.04887002
H       -3.01156762      -0.74242712       1.72931491      -0.44205781      -0.36073284       0.09737263
H       -3.70436052       1.42209433       0.72569637      -0.54204043      -0.09570779       0.03531790
H       -5.62755769      -0.04812354       1.77117226       0.23333780       0.44192585      -1.22539743
H       -6.21543368       1.04590876       0.43119237       0.22247891      -0.56551489      -0.06724295
H       -6.29040566      -1.65723918       0.58407171       0.35744222       0.65725896      -1.03343751
H       -4.67364182       0.27475182      -1.55279825      -0.53783359      -0.43034691      -0.56671873
34
Lattice="22.698 0.0 0.0 0.0 13.945 0.0 0.0 0.0 14.718" Properties=species:S:1:pos:R:3:forces:R:3 energy=-10974.369431476798 pbc="T T T"
C        5.56057896      -1.13675383      -1.84252825      -0.20749768      -0.90600184      -0.96691522
F        6.35159832      -0.23232443      -2.42038944       0.21908894       0.68180045       0.12143926
F        5.27149966      -2.05883569      -2.84527676       0.71180347       0.22985049       1.04038739
F        6.26503160      -1.72331719      -0.81574229      -0.81402877       0.30520990      -0.72783610
O        4.30731389      -0.69619380      -1.44783746      -0.52767348       0.32488206       0.68892058
C        3.93752823       0.64495268      -1.18580592       1.53370324      -0.00167469       0.08863899
F        4.85560937       1.24892742      -0.34561040      -0.63263755      -0.64672293      -0.03551165
F        3.96170042       1.35736573      -2.33554742      -0.40884943       0.25611600      -0.33932829
C        2.47872190       0.65204917      -0.59670235       0.42631731       0.71136624       0.14364854
F        1.95353244       1.92429512      -0.54151490       0.88520457      -0.02751103      -0.45781646
F        1.74955644      -0.09211411      -1.44547190      -0.42473054      -0.22257291      -0.32115424
C        2.30456864       0.12621000       0.83940755      -0.58786405      -1.48328979       0.62616968
F        3.02827366       0.74403179       1.80707772      -1.06266535       1.25086544       0.23220954
F        2.83254744      -1.12436452       0.89357132      -0.24124972      -1.01345022       0.30804960
O        0.87837872       0.02252732       0.90396445       0.18278456       0.12973825       0.31928490
C       -0.13230746       0.40754555       1.79995076       0.73691057      -0.89092676       1.43281859
F       -0.54067064      -0.81296575       2.46362609       0.17371081       1.54643447      -0.43466485
F        0.36983868       1.24135067       2.77796602      -0.05225258      -0.54646013      -0.31192424
C       -1.37800094       1.00276222       1.14220729       0.58814729      -1.09521592      -1.14660666
O       -1.80672502      -0.03645213       0.23900142       0.01297804       0.18592776       0.43706999
C       -3.08952647      -0.60176903       0.64354602       0.85094770       0.92297187       0.76865590
C       -4.06902348       0.49952026       0.25649543      -0.98670149      -0.68227890       0.42834826
C       -5.55294035       0.17326183       0.65128631       0.94319857      -0.17194394       1.00772047
O       -5.93586072      -1.02341507      -0.10005063      -0.54610033       0.67666619       0.56930755
O       -3.91015608       0.66290786      -1.14263319      -0.32729167       0.56320630      -0.48412416
H       -1.20637253       1.92469905       0.57018350       0.50369211      -0.03031803       0.00924289
H       -2.09969249       1.25675542       1.91381576      -0.17011479      -0.16868083       0.49210311
H       -3.21022582      -1.55338561       0.10657372      -0.11132673       0.25726812       0.07453193
H       -3.02669995      -0.73579781       1.74433700      -0.34780083      -0.38012043      -0.31739747
H       -3.70729453       1.43358514       0.74382700      -0.56702567      -0.27034455      -0.10731064
H       -5.62224439      -0.02285736       1.77380028       0.19605284       0.19339566      -1.16893454
H       -6.21325871       1.03672742       0.45512954       0.00295048      -0.27176751      -0.29964923
H       -6.28203267      -1.63908444       0.56508374      -0.06445630      -0.11005169      -0.23649993
H       -4.70605353       0.29493005      -1.55183872      -0.06464120      -0.17663186      -0.24688643
34
Lattice="22.698 0.0 0.0 0.0 13.945 0.0 0.0 0.0 14.718" Properties=species:S:1:pos:R:3:forces:R:3 energy=-10974.37103175121 pbc="T T T"
C        5.55555641      -1.13870921      -1.84682638      -0.07519115      -0.73447425      -0.98722501
F        6.35459228      -0.23195082      -2.42525607       0.03568307       0.60599617       0.29403024
F        5.27511876      -2.05475168      -2.85340534       0.76520267       0.17604209       1.14354082
F        6.26181606      -1.72417308      -0.81874683      -0.85166329       0.24910732      -0.77699200
O        4.29872342      -0.69630065      -1.45200291      -0.29872859       0.17529360       0.63026566
C        3.94035409       0.64576979      -1.18749814       1.24504849      -0.14602611       0.26243963
F        4.85774714       1.24017795      -0.34472456      -0.64494619      -0.48937441      -0.06167151
F        3.96094739       1.34874647      -2.33367839      -0.34841467       0.30881718      -0.58367395
C        2.47562520       0.65498228      -0.59921181       0.60194500       0.67883757       0.39252969
F        1.95246297       1.92842771      -0.53974111       0.92942941      -0.12806143      -0.46109986
F        1.74585236      -0.09153954      -1.44085917      -0.54337730      -0.22271106      -0.44835030
C        2.30710338       0.11589938       0.84013907      -0.50793607      -0.83076854       0.71294352
F        3.03365818       0.74394715       1.81709893      -1.32971466       1.03991528       0.11209497
F        2.83675182      -1.12251643       0.89046160      -0.25216006      -1.26861178       0.41253363
O        0.88395826       0.03008932       0.90730061       0.13907616       0.05486264       0.25345381
C       -0.13228802       0.40815997       1.79996368       0.83362681      -0.83051053       1.47856033
F       -0.54308927      -0.80945239       2.46190505       0.29238069       1.48321321      -0.41056771
F        0.36136250       1.24576889       2.78153158      -0.07390435      -0.43292396      -0.29162951
C       -1.37149508       1.00246727       1.13809586       0.26074337      -1.00234774      -0.91148608
O       -1.79713950      -0.04141536       0.23660936      -0.24468799       0.03602100       0.49045117
C       -3.08875069      -0.60425981       0.64410018       0.75986267       1.02408038       0.89932779
C       -4.06680863       0.50495542       0.26620086      -1.11760497      -0.71071992       0.09558438
C       -5.55435943       0.17101700       0.65144986       1.31790770      -0.21593921       0.92075261
O       -5.93353782      -1.02240480      -0.09963391      -0.03673603       1.59200660      -0.34463953
O       -3.91875574       0.66372525      -1.14247181      -0.77971287       0.39954942      -0.59896879
H       -1.20383161       1.92672685       0.56293991       0.46716419      -0.10785597       0.09344157
H       -2.09895304       1.24674442       1.92496540       0.09146659      -0.19906366       0.15210384
H       -3.23635126      -1.55277632       0.09942732       0.01437335       0.37195076       0.17160475
H       -3.04516161      -0.73280720       1.75632079      -0.21978661      -0.39187855      -0.61618056
H       -3.71565641       1.44248807       0.76093040      -0.53555347      -0.35223544      -0.20215130
H       -5.61505437       0.00426011       1.76523864       0.13917689      -0.10610138      -0.79900589
H       -6.21105551       1.02494458       0.47619832      -0.23784251       0.07314471      -0.52448208
H       -6.27427670      -1.62198317       0.54383186      -0.59371468      -1.05069374       0.74853082
H       -4.73908403       0.31341747      -1.55324253       0.48849645       0.07427632       0.10476723
34
Lattice="22.698 0.0 0.0 0.0 13.945 0.0 0.0 0.0 14.718" Properties=species:S:1:pos:R:3:forces:R:3 energy=-10974.338073401823 pbc="T T T"
C        5.55047346      -1.14125461      -1.85191757       0.05121448      -0.53687782      -0.96948943
F        6.35760435      -0.23126945      -2.42997338      -0.15922792       0.53518314       0.47964029
F        5.27912647      -2.05057826      -2.86095317       0.65810026       0.01441795       1.35216082
F        6.25816799      -1.72490245      -0.82214598      -0.89142357       0.20930604      -0.82750166
O        4.28995280      -0.69630180      -1.45578828      -0.07326975       0.01439679       0.54452616
C        3.94418013       0.64646959      -1.18897953       0.90929053      -0.29298108       0.43216050
F        4.85955736       1.23117996      -0.34387004      -0.63517281      -0.22809720      -0.07994676
F        3.96001741       1.34028404      -2.33210578      -0.26684516       0.35068962      -0.78263962
C        2.47301206       0.65846072      -0.60140593       0.76061488       0.60166419       0.62540429
F        1.95186553       1.93249527      -0.53820150       0.96973220      -0.20052914      -0.46768818
F        1.74187232      -0.09107807      -1.43647414      -0.58812159      -0.20359468      -0.57870157
C        2.30923008       0.10492137       0.84144331      -0.44574199      -0.14780022       0.75219222
F        3.03836740       0.74439063       1.82717707      -1.65052016       0.84474202      -0.18144054
F        2.84082815      -1.12131261       0.88756138      -0.21493452      -1.53179857       0.45645150
O        0.88962166       0.03768439       0.91078960       0.09758996       0.00765511       0.21904861
C       -0.13159890       0.40810722       1.80116437       0.89049197      -0.75704216       1.47384340
F       -0.54535941      -0.80518577       2.45997550       0.41181148       1.38731182      -0.37695329
F        0.35284878       1.24996724       2.78494903       0.03431620      -0.34608994      -0.28164348
C       -1.36477976       1.00136710       1.13325221      -0.02799795      -0.92091836      -0.62263187
O       -1.78770155      -0.04635687       0.23451308      -0.46293531      -0.11720441       0.53084671
C       -3.08736449      -0.60592792       0.64537678       0.62303240       1.14969084       0.88081924
C       -4.06549157       0.50981963       0.27598306      -1.25287154      -0.80029934      -0.28561541
C       -5.55471980       0.16859870       0.65235307       1.59430623      -0.18348131       0.54703886
O       -5.93123707      -1.02043447      -0.09942502       0.25819872       2.04762783      -0.82771705
O       -3.92782562       0.66478358      -1.14267165      -1.11231322       0.31760310      -0.59181683
H       -1.19681874       1.92772220       0.55659079       0.41226207      -0.17460003       0.16674519
H       -2.09733802       1.23482787       1.93757106       0.34537017      -0.20877293      -0.20543670
H       -3.26233910      -1.54860653       0.09392361       0.13762845       0.42421420       0.22059042
H       -3.06572718      -0.73356787       1.76240618      -0.06662562      -0.39675998      -0.73673805
H       -3.72914489       1.44801922       0.77609870      -0.44810437      -0.32677639      -0.23980546
H       -5.60653208       0.03036192       1.74902849       0.07125997      -0.41140726      -0.16652623
H       -6.21112905       1.01386192       0.49224647      -0.40959294       0.35186094      -0.70303933
H       -6.27220407      -1.61493969       0.52974531      -0.89280813      -1.56462447       1.28321882
H       -4.76743838       0.33261590      -1.55364344       0.85378818       0.21304235       0.34354841
34
Lattice="22.698 0.0 0.0 0.0 13.945 0.0 0.0 0.0 14.718" Properties=species:S:1:pos:R:3:forces:R:3 energy=-10974.32665716405 pbc="T T T"
C        5.54543165      -1.14423129      -1.85778758       0.16764703      -0.32058228      -0.91007990
F        6.36053556      -0.23031627      -2.43444710      -0.35760772       0.47158787       0.62353550
F        5.28346840      -2.04639752      -2.86781428       0.42205244      -0.19808049       1.53467984
F        6.25406721      -1.72552552      -0.82596538      -0.93187541       0.14713562      -0.87467157
O        4.28113799      -0.69629426      -1.45924526       0.15746272      -0.15522520       0.44507494
C        3.94873663       0.64693403      -1.19011376       0.54115493      -0.43887187       0.58016691
F        4.86104501       1.22206612      -0.34305612      -0.57495626      -0.02717791      -0.07302048
F        3.95895192       1.33199971      -2.33093064      -0.15836100       0.57250406      -0.92223418
C        2.47100994       0.66242250      -0.60309765       0.89115251       0.48140234       0.82848541
F        1.95176057       1.93646098      -0.53689941       1.00632137      -0.24079043      -0.47637142
F        1.73759359      -0.09072001      -1.43238301      -0.56646872      -0.16525398      -0.67514289
C        2.31099870       0.09382464       0.84335181      -0.39828957       0.53354743       0.74809390
F        3.04223839       0.74526313       1.83716306      -1.90485090       0.65251293      -0.60643739
F        2.84479531      -1.12088674       0.88489298      -0.14841016      -1.78721367       0.47597363
O        0.89534392       0.04528409       0.91441070       0.05598225       0.02966796       0.21682667
C       -0.13019443       0.40744632       1.80354905       0.90318438      -0.66798822       1.41415016
F       -0.54742040      -0.80021460       2.45785451       0.51754740       1.26189697      -0.32777078
F        0.34435250       1.25398983       2.78822344       0.24445973      -0.30933214      -0.29052381
C       -1.35808693       0.99952714       1.12790838      -0.20035784      -0.89265584      -0.35364823
O       -1.77854277      -0.05136906       0.23273693      -0.67144861      -0.23192101       0.55904178
C       -3.08547780      -0.60667244       0.64736098       0.46790006       1.30859567       0.70973230
C       -4.06518099       0.51404095       0.28553583      -1.37213137      -0.93902554      -0.69269879
C       -5.55379941       0.16603300       0.65369574       1.67250553      -0.01179386       0.00786924
O       -5.92878061      -1.01722931      -0.09971530       0.06787422       1.56867723      -0.42426871
O       -3.93756628       0.66603345      -1.14322838      -1.13857627       0.33156761      -0.40574914
H       -1.18585949       1.92704618       0.55183784       0.34801410      -0.20932327       0.21008469
H       -2.09241693       1.22091283       1.94821018       0.50735991      -0.17987230      -0.48706101
H       -3.28700950      -1.54037594       0.09053151       0.24446733       0.39786218       0.20966684
H       -3.08693052      -0.73812653       1.76143913       0.09549833      -0.39473839      -0.66133109
H       -3.74692286       1.45042229       0.78897145      -0.31735405      -0.20429895      -0.22324822
H       -5.59732764       0.05252552       1.73122427      -0.00015315      -0.66857072       0.58046069
H       -6.21512344       1.00614745       0.50156476      -0.42827337       0.45466569      -0.79915859
H       -6.27867787      -1.62287363       0.52794242      -0.68449633      -1.17986221       0.89881426
H       -4.78761981       0.35385368      -1.55075573       0.89497999       0.21290877       0.40654727
34
Lattice="22.698 0.0 0.0 0.0 13.945 0.0 0.0 0.0 14.718" Properties=species:S:1:pos:R:3:forces:R:3 energy=-10974.319405710574 pbc="T T T"
C        5.54052451      -1.14746551      -1.86438868       0.27272261      -0.09259937      -0.80909986
F        6.36328515      -0.22912360      -2.43860415      -0.53526412       0.41146211       0.66005465
F        5.28802468      -2.04231738      -2.87389600       0.17910214      -0.37740992       1.57187851
F        6.24949316      -1.72607387      -0.83022900      -0.97302459       0.06955337      -0.91143429
O        4.27241814      -0.69638034      -1.46243384       0.39944551      -0.32992142       0.35607384
C        3.95372786       0.64704591      -1.19078193       0.15797823      -0.57661979       0.69100899
F        4.86224066       1.21293848      -0.34227929      -0.46362882       0.07886461      -0.03467402
F        3.95780599       1.32400613      -2.33022387      -0.03385955       0.84039295      -1.02027228
C        2.46972371       0.66677100      -0.60412383       0.98412938       0.32308828       0.98997289
F        1.95216669       1.94030441      -0.53583925       1.03638502      -0.25193075      -0.48761188
F        1.73302718      -0.09044586      -1.42863475      -0.50899252      -0.10474731      -0.70123215
C        2.31244737       0.08315651       0.84586127      -0.35900602       1.17391411       0.70821510
F        3.04514197       0.74646701       1.84684107      -1.97017044       0.46259319      -1.01173491
F        2.84868711      -1.12136852       0.88246631      -0.07738424      -2.02197380       0.48078949
O        0.90109994       0.05290167       0.91816256       0.02648376       0.01302273       0.23257196
C       -0.12806440       0.40624880       1.80706975       0.87484129      -0.56176357       1.29730750
F       -0.54921856      -0.79460255       2.45556706       0.59357001       1.12486916      -0.24685793
F        0.33598036       1.25785532       2.79135031       0.31024248      -0.27304952      -0.29783350
C       -1.35155505       0.99697008       1.12228045      -0.22027358      -0.93013791      -0.14883056
O       -1.76978891      -0.05652111       0.23129791      -0.88691962      -0.29246903       0.58468155
C       -3.08321522      -0.60636573       0.64991532       0.32232358       1.49373449       0.40715846
C       -4.06597268       0.51750792       0.29453213      -1.45102623      -1.09424272      -1.09126565
C       -5.55153546       0.16345783       0.65504473       1.51542853       0.28030786      -0.44343652
O       -5.92628322      -1.01307815      -0.10026143      -0.42559402       0.49715287       0.47417314
O       -3.94799357       0.66748328      -1.14402980      -0.72201995       0.42164577      -0.04696824
H       -1.17156886       1.92436641       0.54909593       0.28177507      -0.20189596       0.21382972
H       -2.08263913       1.20527597       1.95418689       0.53438957      -0.10894805      -0.63328705
H       -3.30933972      -1.52833679       0.08914645       0.32476260       0.29646902       0.13920075
H       -3.10721971      -0.74646384       1.75414146       0.24715491      -0.38613442      -0.40973611
H       -3.76773872       1.45086971       0.79970716      -0.16692279      -0.02087073      -0.16904672
H       -5.58812468       0.06828921       1.71897652      -0.06875424      -0.82694858       1.16506469
H       -6.22321748       1.00278529       0.50323308      -0.26912626       0.34820445      -0.79266967
H       -6.29170404      -1.64210182       0.53474344      -0.14761134      -0.22512148      -0.01669919
H       -4.79923403       0.37712953      -1.54397634       0.57918283       0.09218040       0.28846681
34
Lattice="22.698 0.0 0.0 0.0 13.945 0.0 0.0 0.0 14.718" Properties=species:S:1:pos:R:3:forces:R:3 energy=-10974.28918534366 pbc="T T T"
C        5.53583646      -1.15077412      -1.87163975       0.36596395       0.14071118      -0.66937820