68
Lattice="23.838 0.0 0.0 0.0 15.018 0.0 0.0 0.0 17.951" Properties=species:S:1:pos:R:3:forces:R:3 energy=-21948.738814626173 pbc="T T T"
C       14.71773933       2.87407303       0.56542721      -1.20541629       1.82041394      -0.03325899
F       15.11938871       2.56662146       1.77742729       0.72173859      -0.49351796       1.24820081
F       15.13641336       4.16047836       0.25834982       0.15746539      -0.78232166      -0.15277471
F       15.21292968       2.01471837      -0.31746873      -0.40418595      -0.21086592      -0.46059398
O       13.31645824       3.02621587       0.64911665      -0.38412371      -0.49670554      -0.53780182
C       12.32284682       2.05268201       0.49885274       0.35014168       0.31976048       0.53646384
F       12.42184309       1.41186050      -0.67841761       0.00681846      -0.68139242      -0.60199667
F       12.34664675       1.12831944       1.52279944       0.32516239       0.21496314      -0.34478535
C       10.95003521       2.79936062       0.47557774      -0.00480302       0.77407284       0.76224904
F       10.07829569       2.05263401      -0.21308996      -0.80062779      -0.99871422       0.14768464
F       10.45296600       2.98349151       1.76413868       0.11138805      -0.07199031      -0.73941761
C       10.96675655       4.20021297      -0.23268902      -1.16785621      -1.40402904      -0.09299495
F       11.59083396       3.96498473      -1.49192417      -1.10295443       1.14999619       1.35584836
F       11.62795658       5.06973491       0.51541086       0.54852392       0.98453660      -0.10580927
O        9.59152830       4.46893013      -0.39083428      -0.91319056       0.00652881      -0.73290139
C        8.78770928       5.53802770       0.13185685       1.65985718       0.63462250      -1.11922667
F        8.78425596       5.51837427       1.46753317      -0.52854526      -0.76667390       1.00207266
F        9.49319528       6.67227824      -0.20622651       0.29972643       0.94115705       0.30020572
C        7.34299543       5.80720687      -0.43393492       1.93016588       1.25283784      -0.58912918
O        6.53748407       4.72866876      -0.44687944      -1.24873770      -1.98719707      -0.06514992
C        5.20658643       4.80683118       0.10287876      -0.29959582      -0.08628808       0.60641577
C        4.88359716       3.42868519       0.67418592      -0.05138820      -0.31006062       0.65503629
C        3.38847839       3.07894585       0.81598891      -1.43755988       0.25925981      -0.84427403
O        2.38233941       4.12457483       1.08179073       1.10251254      -0.17014619      -0.87199404
O        5.52720537       3.25091767       1.93901910       1.26977946      -0.75699730       0.40675244
H        7.52371636       6.24663755      -1.46871963      -0.30846206      -0.27716602       0.94371615
H        7.02437216       6.58988733       0.28258317      -0.12197089       0.09256172      -0.36740175
H        5.08617078       5.61187972       0.86451910       0.29845855      -0.41970834      -0.24905302
H        4.46257902       4.97043776      -0.66236636      -0.24163996       0.49210130      -0.80977868
H        5.23005756       2.70407006      -0.08793708       0.22277542       0.02245443       0.29490817
H        3.09649041       2.78226168      -0.20062350      -0.11505375      -0.18397768      -0.07946278
H        3.17423549       2.19713661       1.45600453       0.62000580       0.41662609      -0.08851686
H        2.18765968       4.17550864       2.01198240       0.08450034      -0.02035767       1.00396710
H        6.32340384       2.64854972       1.87465616      -1.08188623       0.90770524      -0.13705690
C       11.96900759       2.71592236       8.59836745       0.35252574      -0.48123504      -0.51425510
F       13.15565407       2.12318909       8.72916396       0.94476170      -0.90231768       0.20852385
F       11.76365431       3.46995972       9.67663997      -0.62230491       0.09400342       0.27537438
F       12.11903421       3.54650985       7.52351176      -0.94252143      -0.50091284      -0.03712053
O       10.89622114       1.75448489       8.54738028       0.34760376       0.32801299      -0.72521323
C       10.90969420       0.50899744       7.83170391       0.79748331       1.80517598      -1.12559500
F       11.34288386       0.67530199       6.48173482       0.91128935      -0.32198367       1.94659663
F       11.66239169      -0.42965829       8.47727162      -0.48214814       0.72951974      -0.57682020
C        9.44536135       0.07054358       7.66268027      -0.48265070      -1.31840512       2.10704429
F        9.50962252      -1.27110087       7.30847475       0.05845812       0.59927809       0.41573955
F        8.82634168       0.18125266       8.92906309       0.58025610      -0.37979504      -1.33200004
C        8.52189083       0.75449077       6.61925209      -1.14911282       0.66117315       0.27244293
F        9.20136909       1.04700312       5.50202481       0.15747343       0.03318764      -0.53038842
F        7.93712682       1.90041028       7.10173091       0.37360837       0.25695043       0.20304909
O        7.50744151      -0.15684409       6.48461510      -0.46115226      -2.04177181      -0.18602510
C        6.47833717      -0.16637602       5.55932263      -0.47540256       0.82634555      -0.76180505
F        6.21943444       1.18351663       5.29121437      -0.31473828      -0.81935360      -0.52420607
F        6.81144038      -0.76412551       4.35994226       0.66238100       0.24198795       0.18763243
C        5.23417625      -0.94574057       6.04618655       0.66960972       1.47021881       1.74601092
O        4.78493184      -0.33227523       7.27810409       0.19542237      -0.72794157      -1.11757447
C        4.33073918       1.04656012       7.21305383      -0.51289767       0.32668180      -1.66375316
C        3.16124305       0.98027810       8.13298360       0.41342249       0.52107237       2.57978549
C        2.28414695       2.21741633       8.39937842       1.09579216       0.53744370       1.82318168
O        3.02254416       3.35523611       9.05353163      -0.58108067      -1.03065441      -1.71545696
O        3.70506771       0.63323889       9.50207357      -0.23704420      -0.09333809      -0.97647851
H        5.55021520      -1.94331953       6.33531166       0.24187064      -0.39695140       0.03193418
H        4.46895965      -1.04152612       5.27019353      -0.04728062       0.43202092      -0.22793622
H        5.16671922       1.71072009       7.45415946      -0.23297092       0.14742252       0.37720666
H        3.95130528       1.34831156       6.18769350       0.44899493      -0.49475992       0.69777000
H        2.62693136       0.08668199       7.80582373      -0.78668803       0.18477196      -0.13742747
H        1.78524202       2.67137581       7.59199684      -0.31564131       0.36098069      -1.80322182
H        1.46732781       1.95340208       9.07377665      -0.02622989      -0.46395297       0.22583354
H        2.89726761       3.18416239       9.98026451       0.20996441      -0.13622295       1.05380618
H        4.29987830      -0.12872445       9.31224791      -0.28798692       0.36922778       0.22501345
68
Lattice="23.838 0.0 0.0 0.0 15.018 0.0 0.0 0.0 17.951" Properties=species:S:1:pos:R:3:forces:R:3 energy=-21948.70243945186 pbc="T T T"
C       14.71675020       2.87109682       0.56047513      -0.97701300       1.72980736       0.22782721
F       15.12129015       2.56564650       1.78284288       0.61920226      -0.42511838       0.96057531
F       15.13368981       4.15943046       0.25648229       0.07685783      -0.83599554      -0.18185968
F       15.21481090       2.00472766      -0.32394793      -0.52548104       0.07736315      -0.17729641
O       13.32185436       3.03241005       0.65179173      -0.64085273      -0.69435148      -0.69960442
C       12.32484249       2.05173052       0.49885692       0.42908561       0.32278851       0.49714259
F       12.42394914       1.40860416      -0.67902504       0.07192706      -0.59925875      -0.54923805
F       12.35941379       1.12654730       1.52156137       0.25050099       0.22738738      -0.56342140
C       10.95463199       2.80081682       0.47061798      -0.24448053       0.78141798       0.68563250
F       10.07446447       2.05462250      -0.22054618      -0.44662607      -0.92207733       0.27895531
F       10.44634474       2.98881471       1.75179252       0.31699077      -0.16050519      -0.41867601
C       10.96976671       4.21077208      -0.23471711      -1.44297005      -1.90349809      -0.20629446
F       11.58441085       3.96667871      -1.49074979      -1.11814292       1.14628603       1.19351665
F       11.61529538       5.07841924       0.51216483       0.91990308       1.29573943      -0.05526257
O        9.59705512       4.46612486      -0.39945699      -1.26570314       0.27157710      -0.57121991
C        8.77907533       5.54801028       0.12681098       2.08088971       0.32306431      -0.95052692
F        8.78590857       5.52862185       1.46913810      -0.67937796      -0.74459847       0.71842876
F        9.49275432       6.67502364      -0.20827497       0.20456632       0.94733813       0.21383071
C        7.34241728       5.80488490      -0.43555341       1.58199057       1.90119766      -0.76741692
O        6.53368109       4.72522080      -0.44263843      -0.85226812      -1.79787268      -0.16134516
C        5.21170831       4.80848338       0.09688819      -0.70959503      -0.22062235       0.43426242
C        4.89074036       3.43544867       0.67270080      -0.23244179      -0.19994846       0.77455632
C        3.39475070       3.07788136       0.81222384      -1.47530506       0.66834798      -1.49526359
O        2.37382915       4.12248600       1.08339274       0.88871748      -0.21266602       0.24562161
O        5.53525377       3.26488966       1.94126044       1.07208547      -0.72416053       0.22097091
H        7.50395094       6.24910745      -1.49787418      -0.27438510      -0.47032898       1.50950182
H        7.02891370       6.61330269       0.29349750      -0.01590011      -0.42993599      -0.81515751
H        5.08860102       5.60288392       0.85131963       0.28157587      -0.12367665       0.01049813
H        4.45161304       4.97175556      -0.66104934      -0.06221250       0.45530016      -0.74139607
H        5.25008284       2.72211538      -0.08864134       0.20525405      -0.12313114       0.25735274
H        3.10679521       2.76872290      -0.21991427      -0.03481662       0.00516400       0.41117843
H        3.18201580       2.21990395       1.45136812       0.53828153      -0.10757889       0.22756620
H        2.16147517       4.15443920       2.03697186       0.37367665      -0.10323951      -0.27143961
H        6.33012623       2.67557765       1.84404357      -0.84887833       0.74920806       0.02722454
C       11.96449114       2.71257735       8.60114531       0.32976487      -0.26219063      -0.35817142
F       13.15448683       2.12182590       8.73063686       0.83601855      -0.76889215       0.17486804
F       11.75498894       3.46740114       9.69033605      -0.55217913      -0.11400803      -0.05498382
F       12.11163653       3.55165136       7.52457708      -0.99681825      -0.64560571       0.15591929
O       10.89456194       1.75373360       8.55062844       0.38304411       0.23359117      -0.70896352
C       10.91104567       0.50186062       7.82951279       0.82187985       1.97042127      -0.93258312
F       11.33829185       0.67923658       6.48387869       0.94613622      -0.33940972       1.98671996
F       11.66233796      -0.43561641       8.47731142      -0.47259062       0.76727912      -0.58590864
C        9.45109702       0.06989538       7.66990483      -0.90969332      -1.39071646       1.79399500
F        9.51294129      -1.27424112       7.30445854       0.00430735       0.69760053       0.47984659
F        8.81841253       0.17767874       8.93155415       0.81071261      -0.45908734      -1.38451597
C        8.51694597       0.75820898       6.61909870      -0.75363454       0.41148797       0.47673852
F        9.20345380       1.04225530       5.49946097      -0.03057748       0.07944993      -0.31306699
F        7.94005941       1.89791429       7.11243786       0.22718061       0.38406438       0.11666815
O        7.50398942      -0.15898248       6.49192696      -0.35812249      -1.87161078      -0.20128783
C        6.48331484      -0.16499990       5.56351314      -0.76627723       0.67395794      -0.87950925
F        6.21570312       1.18230824       5.29648065      -0.16476009      -0.75247034      -0.62843955
F        6.80969620      -0.76269655       4.35719322       0.72888680       0.27219486       0.31084929
C        5.23350100      -0.94515125       6.04459413       0.54572662       1.31990113       1.65446614
O        4.78625895      -0.33456302       7.28034753       0.20592589      -0.73000495      -1.19784303
C        4.32976923       1.03781203       7.21358668      -0.37819767       0.52256509      -1.70726721
C        3.16625699       0.97897514       8.12960689       0.14792108       0.45922506       2.80381914
C        2.29306437       2.22262385       8.40265591       0.28630789       0.39959499       1.94578607
O        3.02688993       3.35761085       9.05482858      -0.45698847      -0.88331925      -2.08178893
O        3.70397643       0.63304494       9.50466000       0.28460097      -0.61881568      -1.10656988
H        5.54752019      -1.93618143       6.35887444       0.26377519      -0.41998170      -0.08879230
H        4.46557545      -1.05534329       5.25678066       0.20028291       0.49194444       0.06361732
H        5.15636030       1.71373687       7.46060712      -0.21192566       0.08661668       0.33967996
H        3.95794115       1.33832821       6.18511978       0.41380499      -0.48849570       0.71508362
H        2.62942334       0.07928042       7.81749217      -0.78909601       0.27377698      -0.16968950
H        1.79326126       2.66766563       7.57255857      -0.13367921       0.17446265      -1.23157933
H        1.46683201       1.94697937       9.10702391       0.55273848      -0.21558982      -0.45020563
H        2.95060094       3.17693735       9.97994334       0.18441726      -0.27633176       1.29500913
H        4.31245074      -0.14002622       9.31350766      -0.71849091       0.91498516       0.35314658
68
Lattice="23.838 0.0 0.0 0.0 15.018 0.0 0.0 0.0 17.951" Properties=species:S:1:pos:R:3:forces:R:3 energy=-21948.648227866935 pbc="T T T"
C       14.71497622       2.86951021       0.55570606      -0.71252587       1.57365722       0.47324141
F       15.12350604       2.56445564       1.78874632       0.52718792      -0.33859441       0.66028475
F       15.13100529       4.15795800       0.25452239       0.01656566      -0.86457798      -0.20594850
F       15.21642525       1.99477624      -0.33051716      -0.65899320       0.34710032       0.10185352
O       13.32686402       3.03818550       0.65404492      -0.85958974      -0.81131406      -0.82395938
C       12.32718286       2.05103833       0.49926046       0.48215551       0.29765515       0.42514655
F       12.42609171       1.40504349      -0.67991141       0.17760923      -0.51084765      -0.47132005
F       12.37230804       1.12489064       1.52003716       0.17568472       0.25729969      -0.83425380
C       10.95903238       2.80290075       0.46620902      -0.48395361       0.74189340       0.59622036
F       10.07040642       2.05614271      -0.22786073      -0.11259765      -0.81077635       0.28398123
F       10.43988447       2.99405640       1.73923373       0.53670386      -0.29367043      -0.13984413
C       10.97161770       4.21980204      -0.23691092      -1.66067152      -2.30642036      -0.29539359
F       11.57741987       3.96895484      -1.48896927      -0.87927147       1.06215111       1.02898969
F       11.60310137       5.08776163       0.50889075       1.13825421       1.51788784       0.07418622
O        9.60181866       4.46348338      -0.40842417      -1.56166929       0.51315054      -0.47425194
C        8.77211301       5.55825238       0.12100152       2.43298231       0.03308009      -0.71623011
F        8.78721616       5.53849129       1.47110790      -0.77297430      -0.64467721       0.39200994
F        9.49241724       6.67825016      -0.21021483       0.12503035       0.97629208       0.10847450
C        7.34310998       5.80409022      -0.43778839       1.17152179       2.15557589      -0.78431307
O        6.52936415       4.72068863      -0.43849473      -0.36835421      -1.54721639      -0.27611449
C        5.21626015       4.80995834       0.09124648      -1.20229206      -0.35269877       0.08323595
C        4.89769683       3.44205153       0.67183791      -0.44309074      -0.08422584       0.85343267
C        3.39983785       3.07735378       0.80725757      -1.40510988       1.07445715      -1.98500863
O        2.36585485       4.12026892       1.08514288       0.71466059      -0.28445480       1.07358224
O        5.54394870       3.27842495       1.94363503       0.61310493      -0.39326169       0.09943124
H        7.48155897       6.24707511      -1.51257898      -0.17364589      -0.52442619       1.70191056
H        7.03330303       6.63260248       0.29660872       0.02677308      -0.76668719      -1.05790325
H        5.09372665       5.59270422       0.83822066       0.23497949       0.22073432       0.30957853
H        4.44005153       4.97743172      -0.66682935       0.23093984       0.37162640      -0.51201547
H        5.27207293       2.73898203      -0.08688208       0.17519673      -0.25896253       0.21519346
H        3.11676673       2.75523356      -0.23526902       0.00334504       0.14779472       0.74631048
H        3.19494881       2.24164149       1.44891009       0.42696112      -0.61532030       0.54762578
H        2.13886769       4.13238150       2.05936296       0.61031493      -0.12329223      -1.22839076
H        6.32872270       2.70977740       1.81369160      -0.22743505       0.31629298       0.12862036
C       11.96023959       2.70902172       8.60363543       0.30630535      -0.05769276      -0.19355195
F       13.15374417       2.12007223       8.73219857       0.71307200      -0.61760236       0.14249659
F       11.74604315       3.46478467       9.70400420      -0.64360069      -0.16250239      -0.23221822
F       12.10373260       3.55646499       7.52572157      -1.04082079      -0.77514873       0.35859932
O       10.89313374       1.75312317       8.55344905       0.42070622       0.16198942      -0.69204831
C       10.91305738       0.49630671       7.82657250       0.79055663       2.06386687      -0.71304422
F       11.33418036       0.68299880       6.48703153       0.98942756      -0.37752470       1.94051899
F       11.66204422      -0.44118486       8.47705366      -0.45105185       0.81417482      -0.57638855
C        9.45610191       0.06812998       7.67857056      -1.28195624      -1.39539181       1.41924401
F        9.51626225      -1.27702708       7.30068602      -0.06487679       0.79350892       0.54066637
F        8.81089511       0.17387168       8.93334207       0.97606248      -0.53478899      -1.41258571
C        8.51139569       0.76225775       6.61932828      -0.35338625       0.11684038       0.66349181
F        9.20552298       1.03754783       5.49673814      -0.26392158       0.14162111      -0.09387151
F        7.94310737       1.89561336       7.12320406       0.19431826       0.55919563       0.04877360
O        7.50032137      -0.16224957       6.49911742      -0.22565484      -1.66844532      -0.22838634
C        6.48767694      -0.16308238       5.56699713      -1.02484500       0.49213086      -0.95817996
F        6.21188812       1.18071771       5.30142777      -0.00909745      -0.65873875      -0.69984200
F        6.80832220      -0.76112936       4.35460205       0.77457532       0.30975579       0.39636904
C        5.23326414      -0.94350162       6.04433079       0.49600242       1.00988891       1.57241145
O        4.78771024      -0.33729104       7.28186861       0.21338338      -0.70247228      -1.21804589
C        4.32849547       1.02948373       7.21274803      -0.19051876       0.63259792      -1.46163879
C        3.17138976       0.97804110       8.12848256      -0.16596017       0.32358389       2.91478301
C        2.30221180       2.22815238       8.40749650      -0.45163951       0.40956592       1.57362106
O        3.03096012       3.35945291       9.05487009      -0.37382887      -0.86598932      -1.53046069
O        3.70305679       0.63247782       9.50657911       0.49731682      -0.75983353      -1.13913308
H        5.54735018      -1.93306362       6.38158726       0.22818770      -0.28908646      -0.25907160
H        4.46410847      -1.06445132       5.24397677       0.40809145       0.53212270       0.32765800
H        5.14397272       1.71758279       7.47030637      -0.18329293       0.01456476       0.28464554
H        3.96853817       1.32366873       6.18939122       0.29110977      -0.40019739       0.49988114
H        2.62436168       0.07449958       7.82753626      -0.71019821       0.42746239      -0.16401041
H        1.80000085       2.66562549       7.54133097       0.20414055      -0.13754521      -0.34645587
H        1.47162731       1.93849291       9.13596156       0.89138200      -0.00903187      -0.94898327
H        3.00569961       3.16706712       9.99201867       0.21394758      -0.24220659       0.64199165
H        4.31814540      -0.14256926       9.31814791      -0.83972389       1.06027976       0.38506943
68
Lattice="23.838 0.0 0.0 0.0 15.018 0.0 0.0 0.0 17.951" Properties=species:S:1:pos:R:3:forces:R:3 energy=-21948.616780103235 pbc="T T T"
C       14.71262984       2.86918776       0.55131716      -0.42937099       1.36790771       0.69070948
F       15.12598968       2.56309282       1.79498509       0.41409173      -0.25031922       0.34108966
F       15.12832918       4.15604644       0.25245791      -0.03530258      -0.86355242      -0.22291414
F       15.21770493       1.98500109      -0.33703467      -0.82193162       0.57170372       0.39767288
O       13.33135530       3.04347168       0.65580121      -1.04592131      -0.86609610      -0.91453847
C       12.32991056       2.05058526       0.50000554       0.51029287       0.25622506       0.32482558
F       12.42832448       1.40122338      -0.68103713       0.33556321      -0.41523946      -0.37317742
F       12.38529152       1.12336464       1.51808927      -0.03713110       0.32587991      -0.95302123
C       10.96304399       2.80558066       0.46227901      -0.70357350       0.65766256       0.50044547
F       10.06629120       2.05725116      -0.23503106       0.16547955      -0.67398330       0.06308045
F       10.43369676       2.99914895       1.72660391       0.56283307      -0.29019248      -0.27436567
C       10.97213461       4.22697920      -0.23934203      -1.79912377      -2.57986915      -0.34150742
F       11.56998235       3.97177040      -1.48666617      -0.57491884       0.94044256       0.85891284
F       11.59148543       5.09787489       0.50565433       1.00218019       1.59000615       0.13585384
O        9.60564042       4.46115134      -0.41767736      -1.81803444       0.73860610      -0.42990494
C        8.76710518       5.56852105       0.11461670       2.70019060      -0.23486461      -0.44243941
F        8.78813118       5.54803332       1.47327678      -0.81241091      -0.54641741       0.04378734
F        9.49214367       6.68197250      -0.21209960       0.06633975       1.02824004      -0.00966210
C        7.34474381       5.80502717      -0.44065344       0.75472471       2.01739910      -0.65304955
O        6.52482507       4.71522340      -0.43451753       0.16921309      -1.25696362      -0.39677091
C        5.21984615       4.81114997       0.08567164      -1.66432140      -0.39680266      -0.24427312
C        4.90429736       3.44858672       0.67166060      -0.65666276       0.00265742       0.87164239
C        3.40379624       3.07768934       0.80069669      -1.28541230       1.28671638      -2.09276810
O        2.35831152       4.11788030       1.08754045       0.69821611      -0.36200985       1.35055711
O        5.55301336       3.29172307       1.94606959      -0.02197788       0.02996771       0.05061511
H        7.45750476       6.24002268      -1.51099220      -0.03053561      -0.44743834       1.52680777
H        7.03794865       6.64456313       0.28959313       0.00355960      -0.88766465      -1.08099718
H        5.10110163       5.58463750       0.82808514       0.17310765       0.50028416       0.54423123
H        4.43070069       4.98666529      -0.67751064       0.52524338       0.26895006      -0.23265643
H        5.29574009       2.75336975      -0.08306288       0.11989490      -0.35598749       0.19158912
H        3.12677027       2.74315899      -0.24347969      -0.01398868       0.22255003       0.86308925
H        3.21196893       2.25748886       1.45169423       0.34296001      -0.89053613       0.70760252
H        2.12210247       4.10914358       2.06999525       0.71421764      -0.10141801      -1.60409478
H        6.32514204       2.74700487       1.78457084       0.59131955      -0.23293473       0.14645504
C       11.95623411       2.70541975       8.60597007       0.28080887       0.12998475      -0.02862069
F       13.15336365       2.11800489       8.73383264       0.57766333      -0.51610633       0.12070079
F       11.73677050       3.46208566       9.71755442      -0.45066415       0.00695803      -0.63287511
F       12.09530008       3.56088495       7.52704819      -1.06331890      -0.89058113       0.56184575
O       10.89195925       1.75261044       8.55585232       0.46062227       0.10913634      -0.67119298
C       10.91570417       0.49241075       7.82305940       0.69334574       2.08688650      -0.46711002
F       11.33057135       0.68656929       6.49116989       1.04182659      -0.41948097       1.80902236
F       11.66152140      -0.44633982       8.47650317      -0.41313943       0.85617702      -0.55603504
C        9.46007697       0.06524362       7.68837640      -1.57374473      -1.33542384       1.00509085
F        9.51955026      -1.27941006       7.29718809      -0.14404372       0.87972954       0.59699168
F        8.80387339       0.16979301       8.93441260       1.02648345      -0.58669410      -1.37523231
C        8.50556153       0.76640039       6.62009087       0.03061627      -0.20579051       0.82407114
F        9.20745812       1.03291228       5.49396764      -0.52318437       0.20321079       0.10624403
F        7.94625401       1.89359642       7.13399504       0.20223457       0.70160942      -0.07771634
O        7.49651723      -0.16652281       6.50617016      -0.08692388      -1.44673403      -0.28412058
C        6.49121575      -0.16076952       5.56971137      -1.24093457       0.29122197      -0.99201915
F        6.20806851       1.17879262       5.30601947       0.14304984      -0.54174491      -0.76085419
F        6.80734157      -0.75940486       4.35221218       0.80310349       0.35014349       0.46352700
C        5.23342574      -0.94104072       6.04533061       0.55272049       0.63025233       1.53777800
O        4.78929022      -0.34044269       7.28265514       0.21698766      -0.65188421      -1.17926309
C        4.32706865       1.02166362       7.21073520       0.01929361       0.64912165      -0.95138529
C        3.17638922       0.97736700       8.12969976      -0.49145172       0.17505358       2.91838996
C        2.31099640       2.23400993       8.41360122      -0.88630812       0.40469878       0.97593787
O        3.03480486       3.36077273       9.05398865      -0.22465107      -0.91480517      -0.52236517
O        3.70243705       0.63145247       9.50781126       0.37554509      -0.50011814      -1.07339165
H        5.54936450      -1.93271310       6.40182012       0.16029538      -0.07785153      -0.45059561
H        4.46654796      -1.06846559       5.23430939       0.51534955       0.54428751       0.50048633
H        5.12983056       1.72156813       7.48273039      -0.13925947      -0.05616273       0.21401328
H        3.98192186       1.30517835       6.19844778       0.09666176      -0.23871757       0.07920081
H        2.61250163       0.07381064       7.83601035      -0.57803308       0.59154935      -0.13612017
H        1.80869458       2.66226869       7.50678692       0.50379392      -0.39225241       0.50942765
H        1.48495539       1.92992000       9.15581505       0.95993172       0.13110306      -1.19902146
H        3.06284630       3.15487836      10.01023950       0.16243132      -0.09739197      -0.43198734
H        4.31580178      -0.13496276       9.32647425      -0.63153740       0.78903631       0.32171559
68
Lattice="23.838 0.0 0.0 0.0 15.018 0.0 0.0 0.0 17.951" Properties=species:S:1:pos:R:3:forces:R:3 energy=-21948.63685361633 pbc="T T T"
C       14.70993853       2.86996419       0.54748313      -0.14592427       1.12463551       0.87133589
F       15.12868362       2.56160288       1.80139708       0.37708212      -0.16790026       0.00775924
F       15.12563515       4.15369633       0.25028021      -0.01541378      -0.84213300      -0.22610204
F       15.21856718       1.97551629      -0.34335022      -0.96763079       0.73043111       0.64233641
O       13.33521583       3.04823556       0.65700598      -1.20474805      -0.89441213      -0.97718360
C       12.33304819       2.05033802       0.50101156       0.51497453       0.20782653       0.20009931
F       12.43072767       1.39719238      -0.68235239       0.47298932      -0.30996868      -0.26041514