#     Step Nr.          Time[fs]        Kin.[a.u.]          Temp[K]            Pot.[a.u.]        Cons Qty[a.u.]        UsedTime[s]
       501          501.000000         0.141119783       443.403481578      -806.601274048      -806.460154265        30.991825186
       502          502.000000         0.139875595       439.494196410      -806.599937285      -806.460061690         4.315249362
       503          503.000000         0.137983615       433.549525807      -806.597945046      -806.459961432         4.364652480
       504          504.000000         0.136905389       430.161700113      -806.596789362      -806.459883974         4.342470387
       505          505.000000         0.137578814       432.277626237      -806.597527050      -806.459948236         4.383345650
       506          506.000000         0.139325685       437.766360297      -806.599431196      -806.460105511         4.414410030
       507          507.000000         0.140018085       439.941906636      -806.600174846      -806.460156760         4.371791479
       508          508.000000         0.139470631       438.221785786      -806.599417866      -806.459947235         4.364338954
       509          509.000000         0.139836475       439.371280481      -806.599768289      -806.459931814         4.387497107
       510          510.000000         0.141489482       444.565087059      -806.601561772      -806.460072291         4.436067776
       511          511.000000         0.142843522       448.819532311      -806.602951695      -806.460108173         4.360754190
       512          512.000000         0.142970420       449.218247881      -806.603075878      -806.460105458         4.390808269
       513          513.000000         0.141731240       445.324700943      -806.601795998      -806.460064758         4.383787804
       514          514.000000         0.139843346       439.392868250      -806.599771360      -806.459928014         4.372270131
       515          515.000000         0.138988256       436.706144895      -806.598845689      -806.459857433         4.419599118
       516          516.000000         0.140464497       441.344549022      -806.600363111      -806.459898614         4.361821374
       517          517.000000         0.143930220       452.233976354      -806.603993676      -806.460063456         4.360183054
       518          518.000000         0.147101423       462.198009452      -806.607350141      -806.460248718         4.395039106
       519          519.000000         0.147807886       464.417743805      -806.607949878      -806.460141992         4.374311512
       520          520.000000         0.147244547       462.647710385      -806.607156131      -806.459911584         4.388384322
       521          521.000000         0.148043438       465.157857019      -806.607981349      -806.459937911         4.382854766
       522          522.000000         0.150328633       472.338020884      -806.610344026      -806.460015393         4.385544241
       523          523.000000         0.152527794       479.247865442      -806.612623136      -806.460095342         4.384063822
       524          524.000000         0.153170254       481.266497214      -806.613313802      -806.460143548         4.361667789
       525          525.000000         0.152254380       478.388788382      -806.612222001      -806.459967621         4.352772626
       526          526.000000         0.152053987       477.759145356      -806.611920127      -806.459866140         4.357018687
       527          527.000000         0.153821183       483.311741608      -806.613866337      -806.460045154         4.368608152
       528          528.000000         0.155309775       487.988951006      -806.615552435      -806.460242660         4.392038986
       529          529.000000         0.154082065       484.131440485      -806.614324291      -806.460242226         4.426458372
       530          530.000000         0.150122330       471.689809297      -806.610253214      -806.460130884         4.372696162
       531          531.000000         0.144896365       455.269639663      -806.604931811      -806.460035446         4.368117027
       532          532.000000         0.139696360       438.931034040      -806.599771841      -806.460075481         4.398633654
       533          533.000000         0.134718355       423.289960401      -806.594782552      -806.460064198         4.404946471
       534          534.000000         0.130674260       410.583267703      -806.590588566      -806.459914306         4.393213169
       535          535.000000         0.129100793       405.639378786      -806.589043263      -806.459942470         4.374896416
       536          536.000000         0.129577276       407.136503617      -806.589614003      -806.460036727         4.436371263
       537          537.000000         0.131137615       412.039147462      -806.591064422      -806.459926807         4.382628173
       538          538.000000         0.134673149       423.147923801      -806.594597688      -806.459924539         4.380711938
       539          539.000000         0.139980793       439.824734028      -806.600107740      -806.460126947         4.418412344
       540          540.000000         0.144616905       454.391563610      -806.604789684      -806.460172780         4.539268400
       541          541.000000         0.146754334       461.107444624      -806.606867520      -806.460113186         4.384789562
       542          542.000000         0.146792770       461.228211650      -806.606790934      -806.459998164         4.383974751
       543          543.000000         0.146528847       460.398956024      -806.606451162      -806.459922315         4.441150931
       544          544.000000         0.146921414       461.632415340      -806.606931063      -806.460009649         4.378856922
       545          545.000000         0.146775887       461.175164033      -806.606872336      -806.460096449         4.366823976
       546          546.000000         0.145242111       456.355983507      -806.605184827      -806.459942716         4.424018286
       547          547.000000         0.144185785       453.036970011      -806.604000293      -806.459814508         4.380014580
       548          548.000000         0.145336392       456.652217894      -806.605223724      -806.459887332         4.370882819
       549          549.000000         0.147948110       464.858332222      -806.607930532      -806.459982422         4.374914500
       550          550.000000         0.150153219       471.786865410      -806.610194557      -806.460041338         4.392902968
       551          551.000000         0.151085895       474.717367603      -806.611019476      -806.459933581         4.428163877
       552          552.000000         0.152230460       478.313630481      -806.612005903      -806.459775443         4.371789849
       553          553.000000         0.155218397       487.701838766      -806.615168984      -806.459950587         4.425726483
       554          554.000000         0.158032042       496.542412086      -806.618249017      -806.460216975         4.366043200
       555          555.000000         0.157878979       496.061483038      -806.617962636      -806.460083657         4.364026376
       556          556.000000         0.155954019       490.013189283      -806.615848239      -806.459894220         4.466835784
       557          557.000000         0.154627780       485.846098120      -806.614525788      -806.459898007         4.390950699
       558          558.000000         0.154092458       484.164096253      -806.613978611      -806.459886153         4.461984469
       559          559.000000         0.153842168       483.377676778      -806.613732645      -806.459890477         4.379921941
       560          560.000000         0.153611146       482.651796330      -806.613525830      -806.459914684         4.361128543
       561          561.000000         0.153436916       482.104361025      -806.613306721      -806.459869804         4.404653627
       562          562.000000         0.153560074       482.491326996      -806.613459632      -806.459899557         4.369895456
       563          563.000000         0.153883791       483.508455805      -806.613736867      -806.459853076         4.412124064
       564          564.000000         0.155204736       487.658914405      -806.614987148      -806.459782412         4.392198389
       565          565.000000         0.158394247       497.680474547      -806.618350613      -806.459956366         4.428617892
       566          566.000000         0.161768921       508.283822940      -806.621863966      -806.460095045         4.389168938
       567          567.000000         0.163525144       513.801938376      -806.623529641      -806.460004497         4.390783023
       568          568.000000         0.163901773       514.985321102      -806.623932862      -806.460031088         4.376255631
       569          569.000000         0.163392974       513.386654725      -806.623387326      -806.459994352         4.394667847
       570          570.000000         0.162576523       510.821336483      -806.622558970      -806.459982447         4.378560413
       571          571.000000         0.161040009       505.993554993      -806.621211344      -806.460171335         4.381662569
       572          572.000000         0.156816283       492.722451986      -806.616955903      -806.460139620         4.416732226
       573          573.000000         0.150539967       473.002039844      -806.610433140      -806.459893174         4.421507807
       574          574.000000         0.145500523       457.167923919      -806.605249877      -806.459749354         4.375821672
       575          575.000000         0.143415047       450.615284566      -806.603257048      -806.459842001         4.374010196
       576          576.000000         0.143128220       449.714061371      -806.603149342      -806.460021122         4.417030583
       577          577.000000         0.142445163       447.567873689      -806.602478398      -806.460033235         4.460182144
       578          578.000000         0.141535243       444.708869600      -806.601351508      -806.459816266         4.391699903
       579          579.000000         0.142760032       448.557203197      -806.602556928      -806.459796895         4.403600492
       580          580.000000         0.146289987       459.648450252      -806.606305469      -806.460015481         4.465753203
       581          581.000000         0.149568191       469.948686208      -806.609616036      -806.460047845         4.382127303
       582          582.000000         0.151621166       476.399207379      -806.611590989      -806.459969823         4.379137713
       583          583.000000         0.153133699       481.151639910      -806.613164312      -806.460030613         4.378168292
       584          584.000000         0.153794895       483.229142718      -806.613835089      -806.460040194         4.374411420
       585          585.000000         0.153438348       482.108858573      -806.613417857      -806.459979509         4.377431164
       586          586.000000         0.152877577       480.346894554      -806.612864465      -806.459986888         4.400044499
       587          587.000000         0.152311731       478.568985790      -806.612376418      -806.460064688         4.433307939
       588          588.000000         0.150728669       473.594948217      -806.610880440      -806.460151772         4.389182996
       589          589.000000         0.147484206       463.400728044      -806.607554735      -806.460070529         4.391068932
       590          590.000000         0.143505237       450.898662907      -806.603439598      -806.459934361         4.422282667
       591          591.000000         0.140497424       441.448005221      -806.600382424      -806.459885000         4.375827446
       592          592.000000         0.139208640       437.398600686      -806.599143140      -806.459934499         4.372348348
       593          593.000000         0.138964312       436.630913024      -806.598925021      -806.459960709         4.388617979
       594          594.000000         0.139270385       437.592605799      -806.599216299      -806.459945914         4.448003188
       595          595.000000         0.140239500       440.637598209      -806.600273179      -806.460033679         4.390799404
       596          596.000000         0.141663912       445.113153036      -806.601754530      -806.460090618         4.386053030
       597          597.000000         0.143419848       450.630367729      -806.603534272      -806.460114424         4.521685348
       598          598.000000         0.145008361       455.621533976      -806.605249867      -806.460241506         4.411312465
       599          599.000000         0.145081418       455.851082951      -806.605294867      -806.460213449         4.370068734
       600          600.000000         0.143663042       451.394494030      -806.603785984      -806.460122942         4.419247357
       601          601.000000         0.141817483       445.595678440      -806.601920959      -806.460103476         4.419860820
       602          602.000000         0.140248988       440.667409713      -806.600306032      -806.460057044         4.421334394
       603          603.000000         0.139680019       438.879690725      -806.599663096      -806.459983077         4.387474350
       604          604.000000         0.140770263       442.305276392      -806.600743562      -806.459973299         4.370049947
       605          605.000000         0.143189364       449.906179848      -806.603256130      -806.460066766         4.371627427
       606          606.000000         0.145748121       457.945886625      -806.605874820      -806.460126699         4.386819739
       607          607.000000         0.147973026       464.936619670      -806.608039571      -806.460066544         4.386040800
       608          608.000000         0.150695904       473.492001320      -806.610680631      -806.459984727         4.415115612
       609          609.000000         0.154377557       485.059886329      -806.614505787      -806.460128230         4.444979278
       610          610.000000         0.157163512       493.813458919      -806.617406032      -806.460242521         4.390116729
       611          611.000000         0.157434398       494.664593194      -806.617589669      -806.460155271         4.451515404
       612          612.000000         0.156283011       491.046891705      -806.616287713      -806.460004702         4.407327381
       613          613.000000         0.155294393       487.940619605      -806.615295212      -806.460000819         4.430196057
       614          614.000000         0.154333550       484.921616201      -806.614449881      -806.460116331         4.407130975
       615          615.000000         0.152384954       478.799055571      -806.612496415      -806.460111461         4.398133149
       616          616.000000         0.150185286       471.887619427      -806.610212146      -806.460026860         4.597863450
       617          617.000000         0.148980613       468.102495176      -806.609050080      -806.460069467         4.445123663
       618          618.000000         0.148086062       465.291782254      -806.608222257      -806.460136194         4.418660015
       619          619.000000         0.146685478       460.891097101      -806.606769953      -806.460084474         4.593852557
       620          620.000000         0.145488596       457.130450574      -806.605535226      -806.460046629         4.419395112
       621          621.000000         0.145484632       457.117993272      -806.605519202      -806.460034570         4.508919915
       622          622.000000         0.146742864       461.071404320      -806.606865817      -806.460122953         4.394666344
       623          623.000000         0.148055980       465.197261869      -806.608255104      -806.460199124         4.482516848
       624          624.000000         0.147569572       463.668953186      -806.607727338      -806.460157766         4.393497345
       625          625.000000         0.145462468       457.048354755      -806.605440164      -806.459977696         4.492848160
       626          626.000000         0.143901754       452.144534448      -806.603812086      -806.459910332         4.474149971
       627          627.000000         0.143831255       451.923024163      -806.603836813      -806.460005558         4.381079917
       628          628.000000         0.143925385       452.218782668      -806.604071869      -806.460146484         4.379513002
       629          629.000000         0.142285333       447.065680294      -806.602450226      -806.460164893         4.393723153
       630          630.000000         0.139026720       436.827001105      -806.599010774      -806.459984053         4.471397093
       631          631.000000         0.136744921       429.657506573      -806.596607510      -806.459862588         4.406945703
       632          632.000000         0.136617329       429.256606679      -806.596721543      -806.460104214         4.386889347
       633          633.000000         0.136847458       429.979679143      -806.596952186      -806.460104729         4.419492870
       634          634.000000         0.136868304       430.045178336      -806.596834036      -806.459965732         4.680182120
       635          635.000000         0.137941448       433.417036161      -806.597912154      -806.459970706         4.407320630
       636          636.000000         0.139958452       439.754537824      -806.600029923      -806.460071470         4.412279345
       637          637.000000         0.141947704       446.004837130      -806.601995926      -806.460048223         4.424665288
       638          638.000000         0.144010762       452.487042315      -806.604031019      -806.460020257         4.500632626
       639          639.000000         0.146432998       460.097796009      -806.606525507      -806.460092509         4.391653242
       640          640.000000         0.148424191       466.354195136      -806.608588318      -806.460164128         4.385831632
       641          641.000000         0.148930570       467.945256893      -806.609135739      -806.460205169         4.386254841
       642          642.000000         0.147819145       464.453117626      -806.607916078      -806.460096933         4.385450496
       643          643.000000         0.146692321       460.912598343      -806.606665876      -806.459973555         4.396077857
       644          644.000000         0.146822453       461.321477089      -806.606911357      -806.460088903         4.404767845
       645          645.000000         0.146744588       461.076822976      -806.606967004      -806.460222416         4.427532282
       646          646.000000         0.144913130       455.322315697      -806.605055848      -806.460142717         4.397557112
       647          647.000000         0.142060487       446.359205954      -806.602053943      -806.459993457         4.391696238
       648          648.000000         0.140035512       439.996661362      -806.599936276      -806.459900764         4.388885050
       649          649.000000         0.139918820       439.630011351      -806.599897466      -806.459978646         4.427195459
       650          650.000000         0.140487183       441.415826966      -806.600715099      -806.460227917         4.397976932
       651          651.000000         0.139069617       436.961783133      -806.599291716      -806.460222099         4.405220586
       652          652.000000         0.135936966       427.118881531      -806.595933971      -806.459997005         4.450858550
       653          653.000000         0.134001371       421.037170838      -806.593969800      -806.459968429         4.405327325
       654          654.000000         0.134145005       421.488475404      -806.594189561      -806.460044556         4.392843736
       655          655.000000         0.135452720       425.597363741      -806.595532350      -806.460079629         4.390892156
       656          656.000000         0.137148489       430.925530763      -806.597238678      -806.460090188         4.388878328
       657          657.000000         0.139089837       437.025316609      -806.599102999      -806.460013161         4.410381981
       658          658.000000         0.141882627       445.800363925      -806.601903988      -806.460021361         4.402039615
       659          659.000000         0.145382518       456.797148235      -806.605553511      -806.460170993         4.445714756
       660          660.000000         0.148166680       465.545085346      -806.608389436      -806.460222756         4.421525944
       661          661.000000         0.149359174       469.291947170      -806.609659971      -806.460300796         4.402135655
       662          662.000000         0.147778739       464.326162425      -806.608158865      -806.460380126         4.390233302
       663          663.000000         0.142978097       449.242370418      -806.603129205      -806.460151108         4.392405941
       664          664.000000         0.137713273       432.700103544      -806.597654827      -806.459941554         4.397211982
       665          665.000000         0.134505638       422.621597709      -806.594492003      -806.459986365         4.581495867
       666          666.000000         0.133175370       418.441846024      -806.593225697      -806.460050327         4.601925106
       667          667.000000         0.132471959       416.231702783      -806.592646304      -806.460174346         4.447717697
       668          668.000000         0.131409721       412.894113989      -806.591557324      -806.460147603         4.412767681
       669          669.000000         0.130746148       410.809141212      -806.590676653      -806.459930506         4.401115896
       670          670.000000         0.133058637       418.075066237      -806.592977273      -806.459918636         4.420708587
       671          671.000000         0.138257515       434.410129596      -806.598445426      -806.460187911         4.399846512
       672          672.000000         0.143060376       449.500893350      -806.603382319      -806.460321944         4.406937746
       673          673.000000         0.145506238       457.185881767      -806.605759565      -806.460253327         4.412167880
       674          674.000000         0.146517238       460.362480937      -806.606627213      -806.460109975         4.477898373
       675          675.000000         0.147829872       464.486825185      -806.607960035      -806.460130163         4.409096350
       676          676.000000         0.149290145       469.075054226      -806.609584700      -806.460294555         4.398181316
       677          677.000000         0.148754316       467.391458999      -806.609069886      -806.460315570         4.803328533
       678          678.000000         0.144972941       455.510243409      -806.605124182      -806.460151241         4.663752540
       679          679.000000         0.139742667       439.076532284      -806.599711857      -806.459969190         4.404926968
       680          680.000000         0.135679831       426.310953697      -806.595537590      -806.459857759         4.396671692
       681          681.000000         0.134421641       422.357676703      -806.594269206      -806.459847565         4.471304107
       682          682.000000         0.136007521       427.340568840      -806.596051308      -806.460043786         4.411867404
       683          683.000000         0.138306626       434.564439522      -806.598499469      -806.460192843         4.399652083
       684          684.000000         0.139318182       437.742784592      -806.599452496      -806.460134314         4.403496058
       685          685.000000         0.140212081       440.551447085      -806.600128704      -806.459916623         4.397132729
       686          686.000000         0.143473627       450.799343781      -806.603424366      -806.459950739         4.401300663
       687          687.000000         0.148876407       467.775076106      -806.609022874      -806.460146466         4.409186034
       688          688.000000         0.153432047       482.089059484      -806.613795314      -806.460363267         4.492720702
       689          689.000000         0.153807297       483.268111212      -806.614191711      -806.460384413         4.419822863
       690          690.000000         0.149941956       471.123067723      -806.610033613      -806.460091657         4.407400148
       691          691.000000         0.145723473       457.868441837      -806.605542063      -806.459818590         4.482914529
       692          692.000000         0.144686968       454.611703977      -806.604567390      -806.459880423         4.403118015
       693          693.000000         0.146348665       459.832818269      -806.606471210      -806.460122545         4.399345526
       694          694.000000         0.147412357       463.174975482      -806.607657614      -806.460245258         4.417221818
       695          695.000000         0.146307781       459.704359508      -806.606327519      -806.460019738         4.453805189
       696          696.000000         0.145997160       458.728374806      -806.605733795      -806.459736635         4.431409010
       697          697.000000         0.149829231       470.768882478      -806.609758253      -806.459929022         4.445318306
       698          698.000000         0.155850907       489.689206279      -806.616075155      -806.460224248         4.404939924
       699          699.000000         0.160039122       502.848731345      -806.620281080      -806.460241958         4.399962822
       700          700.000000         0.161217969       506.552711804      -806.621428134      -806.460210165         4.404900857
       701          701.000000         0.159962000       502.606410364      -806.620084901      -806.460122901         4.413065079
       702          702.000000         0.157111153       493.648944199      -806.617168948      -806.460057795         4.441812128
       703          703.000000         0.154035814       483.986120023      -806.614027127      -806.459991313         4.451475766
       704          704.000000         0.151535316       476.129463715      -806.611629908      -806.460094592         4.410331892
       705          705.000000         0.148305080       465.979945302      -806.608586001      -806.460280921         4.403569263
       706          706.000000         0.142176487       446.723683958      -806.602382569      -806.460206082         4.452799149
       707          707.000000         0.134588472       422.881864662      -806.594335162      -806.459746689         4.494986797
       708          708.000000         0.130867961       411.191884281      -806.590438912      -806.459570951         4.413976955
       709          709.000000         0.133384488       419.098901933      -806.593167922      -806.459783434         4.428470053
       710          710.000000         0.138621780       435.554665900      -806.598717761      -806.460095980         4.466025280
       711          711.000000         0.142231035       446.895075009      -806.602330243      -806.460099208         4.403208312
       712          712.000000         0.144050794       452.612824443      -806.603905381      -806.459854587         4.396302481
       713          713.000000         0.147147447       462.342619353      -806.606823597      -806.459676150         4.403158173
       714          714.000000         0.153107144       481.068203648      -806.613142240      -806.460035096         4.400426041
       715          715.000000         0.159090667       499.868651199      -806.619402964      -806.460312297         4.403199897
       716          716.000000         0.161064967       506.071972033      -806.621416899      -806.460351932         4.423558507
       717          717.000000         0.158563974       498.213761412      -806.618725699      -806.460161725         4.464739427
       718          718.000000         0.154409321       485.159692433      -806.614364063      -806.459954741         4.419669383
       719          719.000000         0.151462714       475.901345287      -806.611448233      -806.459985519         4.432828899
       720          720.000000         0.149439118       469.543132460      -806.609497858      -806.460058741         4.410399046
       721          721.000000         0.146139384       459.175249217      -806.606224424      -806.460085040         4.400273174
       722          722.000000         0.141610837       444.946388856      -806.601506730      -806.459895893         4.404066544
       723          723.000000         0.138256576       434.407179127      -806.598008409      -806.459751834         4.417243673
       724          724.000000         0.138113669       433.958161251      -806.597886344      -806.459772675         4.460790527
       725          725.000000         0.141473882       444.516071887      -806.601273189      -806.459799307         4.429320296
       726          726.000000         0.147135904       462.306349703      -806.607080058      -806.459944155         4.452137528
       727          727.000000         0.152958061       480.599780031      -806.613040437      -806.460082376         4.405925863
       728          728.000000         0.156844078       492.809786853      -806.616898134      -806.460054056         4.402418000