      68
 i =      501, time =      501.000, E =      -806.6012740481
  C        -0.0234416147        0.0354014148       -0.0006467843
  F         0.0140355810       -0.0095973963        0.0242736410
  F         0.0030622142       -0.0152137341       -0.0029709950
  F        -0.0078601653       -0.0041006893       -0.0089571268
  O        -0.0074700169       -0.0096593848       -0.0104585802
  C         0.0068091716        0.0062183513        0.0104325607
  F         0.0001325980       -0.0132509728       -0.0117069714
  F         0.0063234018        0.0041803676       -0.0067050076
  C        -0.0000934038        0.0150533201        0.0148233837
  F        -0.0155697317       -0.0194218994        0.0028720089
  F         0.0021661526       -0.0013999887       -0.0143793831
  C        -0.0227111873       -0.0273040176       -0.0018084638
  F        -0.0214490488        0.0223638653        0.0263670527
  F         0.0106670920        0.0191461885       -0.0020576626
  O        -0.0177587289        0.0001269652       -0.0142526628
  C         0.0322790829        0.0123414427       -0.0217654933
  F        -0.0102785689       -0.0149094335        0.0194872106
  F         0.0058287511        0.0183025906        0.0058380718
  C         0.0375357503        0.0243638170       -0.0114567384
  O        -0.0242840820       -0.0386448303       -0.0012669642
  C        -0.0058262110       -0.0016780359        0.0117929092
  C        -0.0009993414       -0.0060297190        0.0127384277
  C        -0.0279560888        0.0050418006       -0.0164185158
  O         0.0214404553       -0.0033088166       -0.0169575842
  O         0.0246932791       -0.0147212537        0.0079100756
  H        -0.0059986320       -0.0053900210        0.0183523571
  H        -0.0023719562        0.0018000388       -0.0071448264
  H         0.0058040948       -0.0081620278       -0.0048433102
  H        -0.0046991491        0.0095698466       -0.0157476881
  H         0.0043322922        0.0004366692        0.0057350509
  H        -0.0022374392       -0.0035777962       -0.0015453050
  H         0.0120571931        0.0081020875       -0.0017213789
  H         0.0016432700       -0.0003958937        0.0195240516
  H        -0.0210393374        0.0176520565       -0.0026653323
  C         0.0068555341       -0.0093585316       -0.0100006695
  F         0.0183726899       -0.0175472852        0.0040551433
  F        -0.0121019037        0.0018280755        0.0053551791
  F        -0.0183291236       -0.0097412039       -0.0007218794
  O         0.0067598169        0.0063788370       -0.0141031520
  C         0.0155085812        0.0351050837       -0.0218893376
  F         0.0177217563       -0.0062615854        0.0378552774
  F        -0.0093762885        0.0141869002       -0.0112173669
  C        -0.0093860618       -0.0256388975        0.0409754876
  F         0.0011368295        0.0116541034        0.0080848470
  F         0.0112841846       -0.0073858376       -0.0259032767
  C        -0.0223466864        0.0128577706        0.0052981715
  F         0.0030623707        0.0006453969       -0.0103144125
  F         0.0072655261        0.0049968902        0.0039486761
  O        -0.0089679837       -0.0397061399       -0.0036176123
  C        -0.0092451078        0.0160698625       -0.0148147495
  F        -0.0061206851       -0.0159338907       -0.0101941850
  F         0.0128812595        0.0047059163        0.0036488698
  C         0.0130218358        0.0285912037        0.0339545065
  O         0.0038003600       -0.0141562097       -0.0217333633
  C        -0.0099742716        0.0063529495       -0.0323548477
  C         0.0080397874        0.0101332442        0.0501688403
  C         0.0213097648        0.0104516159        0.0354552387
  O        -0.0113002198       -0.0200430372       -0.0333603264
  O        -0.0046097757       -0.0018151368       -0.0189894837
  H         0.0047036350       -0.0077194756        0.0006210210
  H        -0.0009194616        0.0084014693       -0.0044326538
  H        -0.0045305631        0.0028669116        0.0073355017
  H         0.0087315613       -0.0096215486        0.0135694661
  H        -0.0152986464        0.0035932426       -0.0026725387
  H        -0.0061382461        0.0070199567       -0.0350670813
  H        -0.0005100901       -0.0090224487        0.0043917631
  H         0.0040831577       -0.0026491146        0.0204932675
  H        -0.0056004539        0.0071803371        0.0043758149
      68
 i =      502, time =      502.000, E =      -806.5999372846
  C        -0.0189998778        0.0336393973        0.0044305338
  F         0.0120415668       -0.0082672362        0.0186802156
  F         0.0014946469       -0.0162575248       -0.0035366078
  F        -0.0102189793        0.0015044737       -0.0034478662
  O        -0.0124626014       -0.0135029864       -0.0136051398
  C         0.0083443866        0.0062772371        0.0096678842
  F         0.0013987587       -0.0116537272       -0.0106809795
  F         0.0048714687        0.0044219805       -0.0109568018
  C        -0.0047543894        0.0151961603        0.0133334292
  F        -0.0086854942       -0.0179315491        0.0054248170
  F         0.0061644890       -0.0031213290       -0.0081419520
  C        -0.0280612997       -0.0370171442       -0.0040117885
  F        -0.0217444178        0.0222917141        0.0232102034
  F         0.0178892667        0.0251981200       -0.0010746858
  O        -0.0246140072        0.0052813337       -0.0111084587
  C         0.0404668620        0.0062826006       -0.0184848055
  F        -0.0132117978       -0.0144801348        0.0139712149
  F         0.0039781816        0.0184227935        0.0041583453
  C         0.0307648185        0.0369724081       -0.0149238830
  O        -0.0165739762       -0.0349630571       -0.0031376638
  C        -0.0137994262       -0.0042904216        0.0084450596
  C        -0.0045202732       -0.0038883785        0.0150627222
  C        -0.0286901155        0.0129972989       -0.0290782472
  O         0.0172828034       -0.0041356956        0.0047765798
  O         0.0208487431       -0.0140826802        0.0042972000
  H        -0.0053359406       -0.0091464424        0.0293551366
  H        -0.0003092080       -0.0083609238       -0.0158522897
  H         0.0054757788       -0.0024051279        0.0002041562
  H        -0.0012098406        0.0088541784       -0.0144178580
  H         0.0039915557       -0.0023945194        0.0050047139
  H        -0.0006770754        0.0001004239        0.0079961474
  H         0.0104679091       -0.0020920763        0.0044254580
  H         0.0072668538       -0.0020076888       -0.0052786599
  H        -0.0165080553        0.0145697770        0.0005294330
  C         0.0064129057       -0.0050987960       -0.0069653251
  F         0.0162579723       -0.0149525717        0.0034006419
  F        -0.0107381745       -0.0022171032       -0.0010692650
  F        -0.0193850287       -0.0125550321        0.0030321475
  O         0.0074490220        0.0045426250       -0.0137871453
  C         0.0159830183        0.0383185929       -0.0181358542
  F         0.0183994200       -0.0066004682        0.0386355519
  F        -0.0091904244        0.0149212032       -0.0113941090
  C        -0.0176907185       -0.0270451293        0.0348876483
  F         0.0000837647        0.0135661705        0.0093315304
  F         0.0157658502       -0.0089278273       -0.0269245489
  C        -0.0146558584        0.0080021669        0.0092710881
  F        -0.0005946373        0.0015450552       -0.0060881837
  F         0.0044179595        0.0074688631        0.0022688343
  O        -0.0069643737       -0.0363970348       -0.0039144250
  C        -0.0149017196        0.0131063952       -0.0171037317
  F        -0.0032040736       -0.0146332183       -0.0122212035
  F         0.0141745914        0.0052933473        0.0060450562
  C         0.0106126930        0.0256679904        0.0321742438
  O         0.0040046209       -0.0141963360       -0.0232943381
  C        -0.0073547737        0.0101622730       -0.0332010613
  C         0.0028766070        0.0089305055        0.0545256012
  C         0.0055678020        0.0077708853        0.0378395146
  O        -0.0088870108       -0.0171778245       -0.0404843490
  O         0.0055346076       -0.0120340491       -0.0215193581
  H         0.0051296108       -0.0081673437       -0.0017267354
  H         0.0038948825        0.0095667962        0.0012371600
  H        -0.0041212979        0.0016844262        0.0066057235
  H         0.0080472258       -0.0094997289        0.0139061624
  H        -0.0153454742        0.0053241146       -0.0032999353
  H        -0.0025996468        0.0033927584       -0.0239504047
  H         0.0107490520       -0.0041925544       -0.0087551055
  H         0.0035863447       -0.0053737971        0.0251839179
  H        -0.0139724237        0.0177936283        0.0068676075
      68
 i =      503, time =      503.000, E =      -806.5979450465
  C        -0.0138564220        0.0306027605        0.0092030801
  F         0.0102521727       -0.0065846130        0.0128404940
  F         0.0003221508       -0.0168133649       -0.0040050606
  F        -0.0128153774        0.0067500266        0.0019807356
  O        -0.0167163589       -0.0157775465       -0.0160234588
  C         0.0093764318        0.0057884711        0.0082677841
  F         0.0034539497       -0.0099344051       -0.0091657157
  F         0.0034165238        0.0050036824       -0.0162236534
  C        -0.0094113994        0.0144275296        0.0115946399
  F        -0.0021896756       -0.0157670897        0.0055225556
  F         0.0104372283       -0.0057109807       -0.0027195354
  C        -0.0322949194       -0.0448527348       -0.0057444907
  F        -0.0170991077        0.0206555504        0.0200106635
  F         0.0221355201        0.0295182188        0.0014426923
  O        -0.0303696325        0.0099791892       -0.0092227319
  C         0.0473139730        0.0006433054       -0.0139284580
  F        -0.0150319568       -0.0125369757        0.0076233796
  F         0.0024314532        0.0189858581        0.0021094931
  C         0.0227824716        0.0419192769       -0.0152524609
  O        -0.0071633489       -0.0300885683       -0.0053695719
  C        -0.0233808580       -0.0068588990        0.0016186816
  C        -0.0086167430       -0.0016379318        0.0165966230
  C        -0.0273250366        0.0208948648       -0.0386022719
  O         0.0138979358       -0.0055317652        0.0208778505
  O         0.0119229926       -0.0076477222        0.0019336297
  H        -0.0033768750       -0.0101984657        0.0330968909
  H         0.0005206535       -0.0149096920       -0.0205729428
  H         0.0045696236        0.0042925991        0.0060203439
  H         0.0044910648        0.0072269829       -0.0099571156
  H         0.0034070339       -0.0050360194        0.0041848466
  H         0.0000650507        0.0028741497        0.0145134281
  H         0.0083030719       -0.0119660747        0.0106496258
  H         0.0118687357       -0.0023976522       -0.0238883969
  H        -0.0044229075        0.0061509192        0.0025012677
  C         0.0059566907       -0.0011219455       -0.0037639862
  F         0.0138670426       -0.0120104537        0.0027711175
  F        -0.0125160408       -0.0031601683       -0.0045159253
  F        -0.0202407417       -0.0150742427        0.0069736465
  O         0.0081814333        0.0031501926       -0.0134581969
  C         0.0153738788        0.0401358205       -0.0138665024
  F         0.0192413025       -0.0073416866        0.0377370861
  F        -0.0087715619        0.0158331795       -0.0112089727
  C        -0.0249300796       -0.0271360504        0.0275999018
  F        -0.0012616526        0.0154312917        0.0105142869
  F         0.0189813932       -0.0103999901       -0.0274704184
  C        -0.0068722685        0.0022721836        0.0129028615
  F        -0.0051324576        0.0027540921       -0.0018255102
  F         0.0037788885        0.0108746237        0.0009484955
  O        -0.0043882879       -0.0324460957       -0.0044414072
  C        -0.0199300622        0.0095704214       -0.0186336336
  F        -0.0001769172       -0.0128104291       -0.0136097601
  F         0.0150630918        0.0060237911        0.0077081506
  C         0.0096457113        0.0196392125        0.0305785342
  O         0.0041496460       -0.0136609109       -0.0236872213
  C        -0.0037050000        0.0123020709       -0.0284243489
  C        -0.0032274115        0.0062927048        0.0566835048
  C        -0.0087829902        0.0079647890        0.0306020573
  O        -0.0072698140       -0.0168408110       -0.0297627219
  O         0.0096712724       -0.0147764096       -0.0221526115
  H         0.0044375442       -0.0056218366       -0.0050381405
  H         0.0079361151        0.0103481389        0.0063719336
  H        -0.0035644800        0.0002832394        0.0055354744
  H         0.0056611837       -0.0077826001        0.0097211404
  H        -0.0138111562        0.0083128200       -0.0031894947
  H         0.0039699017       -0.0026748284       -0.0067374940
  H         0.0173346201       -0.0001756420       -0.0184547864
  H         0.0041606180       -0.0047101682        0.0124847498
  H        -0.0163300298        0.0206191585        0.0074884081
      68
 i =      504, time =      504.000, E =      -806.5967893622
  C        -0.0083499363        0.0266015696        0.0134321608
  F         0.0080528021       -0.0048679337        0.0066331378
  F        -0.0006865259       -0.0167934208       -0.0043349899
  F        -0.0159840252        0.0111178673        0.0077335062
  O        -0.0203399312       -0.0168428876       -0.0177849417
  C         0.0099236164        0.0049827841        0.0063168518
  F         0.0065256654       -0.0080751219       -0.0072571453
  F        -0.0007220849        0.0063373553       -0.0185333122
  C        -0.0136823261        0.0127895005        0.0097321149
  F         0.0032180649       -0.0131068884        0.0012267194
  F         0.0109453606       -0.0056433452       -0.0053355627
  C        -0.0349873869       -0.0501704672       -0.0066412620
  F        -0.0111803914        0.0182886960        0.0167031954
  F         0.0194893017        0.0309206966        0.0026419366
  O        -0.0353551409        0.0143636017       -0.0083603201
  C         0.0525103468       -0.0045673895       -0.0086040767
  F        -0.0157988768       -0.0106261268        0.0008515282
  F         0.0012901027        0.0199960852       -0.0001878979
  C         0.0146770589        0.0392321663       -0.0126997917
  O         0.0032906707       -0.0244440507       -0.0077159658
  C        -0.0323658982       -0.0077165831       -0.0047503559
  C        -0.0127700575        0.0000516785        0.0169507457
  C        -0.0249972893        0.0250226496       -0.0406978599
  O         0.0135781415       -0.0070399707        0.0262641543
  O        -0.0004274017        0.0005827792        0.0009843072
  H        -0.0005938231       -0.0087012903        0.0296916839
  H         0.0000692232       -0.0172623290       -0.0210220482
  H         0.0033664079        0.0097289780        0.0105836123
  H         0.0102143575        0.0052302459       -0.0045244472
  H         0.0023315845       -0.0069228545        0.0037258152
  H        -0.0002720366        0.0043279090        0.0167844136
  H         0.0066695104       -0.0173181704        0.0137606781
  H         0.0138893218       -0.0019722663       -0.0311946768
  H         0.0114993345       -0.0045298593        0.0028480971
  C         0.0054608630        0.0025278010       -0.0005565838
  F         0.0112337632       -0.0100366701        0.0023472567
  F        -0.0087640224        0.0001353121       -0.0123074614
  F        -0.0206782604       -0.0173190456        0.0109261602
  O         0.0089576769        0.0021223640       -0.0130526254
  C         0.0134834279        0.0405834810       -0.0090838436
  F         0.0202603014       -0.0081576061        0.0351798839
  F        -0.0080342827        0.0166499922       -0.0108131600
  C        -0.0306044623       -0.0259698590        0.0195459051
  F        -0.0028012043        0.0171080158        0.0116096397
  F         0.0199619249       -0.0114093838       -0.0267440104
  C         0.0005953917       -0.0040019882        0.0160256322
  F        -0.0101743161        0.0039518207        0.0020661175
  F         0.0039328362        0.0136441309       -0.0015113422
  O        -0.0016904004       -0.0281344976       -0.0055252656
  C        -0.0241323353        0.0056633657       -0.0192917009
  F         0.0027818764       -0.0105352611       -0.0147962582
  F         0.0156178763        0.0068092067        0.0090141650
  C         0.0107487022        0.0122564564        0.0299050209
  O         0.0042197382       -0.0126771295       -0.0229330159
  C         0.0003752009        0.0126234062       -0.0185014983
  C        -0.0095572143        0.0034042501        0.0567536488
  C        -0.0172359488        0.0078701382        0.0189789699
  O        -0.0043687678       -0.0177901281       -0.0101583853
  O         0.0073031892       -0.0097257493       -0.0208741442
  H         0.0031172489       -0.0015139712       -0.0087626894
  H         0.0100219532        0.0105847069        0.0097329095
  H        -0.0027081655       -0.0010921913        0.0041618957
  H         0.0018797720       -0.0046423177        0.0015402105
  H        -0.0112409538        0.0115038033       -0.0026471159
  H         0.0097972319       -0.0076280948        0.0099067906
  H         0.0186676999        0.0025495486       -0.0233172550
  H         0.0031587862       -0.0018939723       -0.0084008163
  H        -0.0122814471        0.0153443132        0.0062563722
      68
 i =      505, time =      505.000, E =      -806.5975270501
  C        -0.0028377752        0.0218706785        0.0169447853
  F         0.0073330797       -0.0032651403        0.0001508932
  F        -0.0002997503       -0.0163768795       -0.0043969846
  F        -0.0188174229        0.0142046235        0.0124914543
  O        -0.0234286195       -0.0173935467       -0.0190031955
  C         0.0100146601        0.0040415825        0.0038913121
  F         0.0091981779       -0.0060279312       -0.0050642681
  F        -0.0064257362        0.0076944896       -0.0153753286
  C        -0.0172655824        0.0103740316        0.0077466920
  F         0.0076479949       -0.0102137715       -0.0041310533
  F         0.0107897414       -0.0048463337       -0.0078895903
  C        -0.0359586995       -0.0525314170       -0.0064926917
  F        -0.0049424152        0.0162125509        0.0135131930
  F         0.0170213015        0.0300446094        0.0038157651
  O        -0.0399002979        0.0183116241       -0.0090845861
  C         0.0558015446       -0.0093149123       -0.0030693335
  F        -0.0155342955       -0.0098432551       -0.0057294707
  F         0.0006125006        0.0212655038       -0.0026017698
  C         0.0074391506        0.0291308931       -0.0066336244
  O         0.0140143952       -0.0185311493       -0.0097025115
  C        -0.0389835034       -0.0051920752       -0.0071593766
  C        -0.0164118220        0.0006708287        0.0157787110
  C        -0.0225401228        0.0230748974       -0.0326037353
  O         0.0168071304       -0.0080454121        0.0201344887
  O        -0.0117775173        0.0039327745        0.0001156506
  H         0.0026484187       -0.0046200246        0.0187304328
  H        -0.0016544967       -0.0152979660       -0.0172831774
  H         0.0022183927        0.0117034132        0.0118585484
  H         0.0141730205        0.0033100428        0.0001319132
  H         0.0005629923       -0.0076644888        0.0038688830
  H        -0.0016882172        0.0042724905        0.0144392124
  H         0.0061352410       -0.0155731048        0.0113902958
  H         0.0128799782       -0.0014178573       -0.0265874155
  H         0.0232528199       -0.0118173478        0.0027995429
  C         0.0049970910        0.0058103984        0.0024626329
  F         0.0085934159       -0.0067916929        0.0014918873
  F        -0.0014276229       -0.0009870028       -0.0227374977
  F        -0.0206678096       -0.0191203554        0.0146315783
  O         0.0097318702        0.0014104932       -0.0127064892
  C         0.0102412451        0.0397024726       -0.0037985289
  F         0.0212395473       -0.0090546195        0.0310625229
  F        -0.0069269946        0.0173191254       -0.0103177388
  C        -0.0343234257       -0.0236524281        0.0110569859
  F        -0.0045586508        0.0184476598        0.0125811675
  F         0.0166706450       -0.0115926262       -0.0247753457
  C         0.0074057011       -0.0105362468        0.0185061270
  F        -0.0151920852        0.0047147696        0.0052397460
  F         0.0028187128        0.0152667045       -0.0052359225
  O         0.0005765917       -0.0235346604       -0.0066807133
  C        -0.0272101254        0.0015848654       -0.0190197797
  F         0.0058893896       -0.0080627587       -0.0156942631
  F         0.0158554402        0.0076560811        0.0093187416
  C         0.0138023274        0.0055001917        0.0299643513
  O         0.0041800232       -0.0113036601       -0.0209925959
  C         0.0039885121        0.0114715279       -0.0052381378
  C        -0.0151750380        0.0012297578        0.0548359011
  C        -0.0179680547        0.0062107824        0.0065437688
  O         0.0000853113       -0.0178952275        0.0066773102
  O        -0.0011051739        0.0023059335       -0.0178882213
  H         0.0017687958        0.0023449287       -0.0120540041
  H         0.0096267623        0.0102009764        0.0106898968
  H        -0.0014661348       -0.0022289381        0.0025158515
  H        -0.0025663232       -0.0006375831       -0.0088068870
  H        -0.0082971486        0.0138147821       -0.0019596864
  H         0.0128700443       -0.0098357004        0.0218607591
  H         0.0149301721        0.0037477336       -0.0230064914
  H         0.0003160397        0.0008357272       -0.0256793713
  H        -0.0023848016        0.0028456609        0.0034593165
      68
 i =      506, time =      506.000, E =      -806.5994311958
  C         0.0024114885        0.0166345376        0.0196729162
  F         0.0091317625       -0.0016000911       -0.0066929089
  F         0.0011234467       -0.0156146556       -0.0043824876
  F        -0.0218017196        0.0166382439        0.0167045286
  O        -0.0259902548       -0.0180199448       -0.0197691995
  C         0.0096981353        0.0030726246        0.0010963013
  F         0.0115087554       -0.0036408931       -0.0027527477
  F        -0.0097934263        0.0083320482       -0.0094885360
  C        -0.0200379505        0.0072889728        0.0055780646
  F         0.0117877155       -0.0072012791       -0.0072122834
  F         0.0144680543       -0.0071826702       -0.0040362465
  C        -0.0353822077       -0.0517017368       -0.0052762273
  F         0.0000497727        0.0148678471        0.0103383890
  F         0.0191627278        0.0276913206        0.0048105126
  O        -0.0440466417        0.0217144893       -0.0084466027
  C         0.0569219443       -0.0135337734        0.0021558410
  F        -0.0145212624       -0.0111069533       -0.0114537883
  F         0.0004128979        0.0226645161       -0.0049789548
  C         0.0020715243        0.0120958760        0.0031888232
  O         0.0242803479       -0.0127494720       -0.0107040640
  C        -0.0421164953        0.0010279830       -0.0041684969
  C        -0.0191734287       -0.0000427893        0.0131948689
  C        -0.0196219609        0.0165040480       -0.0152151391
  O         0.0235308272       -0.0079959408        0.0027424365
  O        -0.0134484591        0.0010916863       -0.0028031007
  H         0.0059307832        0.0018317393        0.0003521178
  H        -0.0046257822       -0.0090796390       -0.0095837395
  H         0.0012712629        0.0094524659        0.0091322911
  H         0.0154182604        0.0017581182        0.0029923967
  H        -0.0019561834       -0.0072003049        0.0044977489
  H        -0.0040041548        0.0026856298        0.0077982970
  H         0.0061557070       -0.0080006067        0.0041426665
  H         0.0087563163       -0.0015045512       -0.0104537080
  H         0.0229375028       -0.0106133487        0.0048336368
  C         0.0046291822        0.0086525152        0.0051336797
  F         0.0058380095       -0.0060672193        0.0004161342
  F        -0.0003702489       -0.0084269264       -0.0251442635
  F        -0.0183652650       -0.0205442378        0.0171213111
  O         0.0104095229        0.0009212194       -0.0123178515
  C         0.0057244648        0.0375821984        0.0019559506
  F         0.0223173818       -0.0105427103        0.0268376513
  F        -0.0053960678        0.0178968813       -0.0098313826
  C        -0.0359225372       -0.0203104218        0.0023092526
  F        -0.0063718438        0.0192568219        0.0133964005
  F         0.0148264066       -0.0111848972       -0.0217580473
  C         0.0132857891       -0.0170188653        0.0202450432
  F        -0.0197385974        0.0048453779        0.0075389604
  F         0.0011203803        0.0160930405       -0.0049047589
  O         0.0020817145       -0.0184559539       -0.0079893008
  C        -0.0289248427       -0.0024299334       -0.0178195435
  F         0.0083741891       -0.0055491933       -0.0159507304
  F         0.0158338673        0.0084373346        0.0099361935
  C         0.0182566397        0.0007726020        0.0301741900
  O         0.0040080239       -0.0095925289       -0.0178749044
  C         0.0058660191        0.0097873557        0.0075275954
  C        -0.0193409647        0.0003375259        0.0510475101
  C        -0.0110008145        0.0033572524       -0.0054044402
  O         0.0045995777       -0.0159643765        0.0152112047
  O        -0.0125720223        0.0175059662       -0.0139649295
  H         0.0008473595        0.0045839704       -0.0142081401
  H         0.0067817157        0.0092273051        0.0091415717
  H         0.0001863662       -0.0029688233        0.0006445178
  H        -0.0064121410        0.0031619531       -0.0175885416
  H        -0.0055344087        0.0145234857       -0.0013256131
  H         0.0128401039       -0.0092058321        0.0278449192
  H         0.0063948321        0.0031804868       -0.0175076562
  H        -0.0029938454        0.0021606995       -0.0337507232
  H         0.0103415767       -0.0129701670        0.0000229986
      68
 i =      507, time =      507.000, E =      -806.6001748456
  C         0.0071281457        0.0110756897        0.0216215453
  F         0.0113818761        0.0001050372       -0.0137071470
  F         0.0031381379       -0.0146775362       -0.0042292869
  F        -0.0243447835        0.0192308120        0.0203289086
  O        -0.0279452253       -0.0183529512       -0.0201435349
  C         0.0089960261        0.0021630783       -0.0019130008
  F         0.0135939156       -0.0007067637       -0.0004421827
  F        -0.0108528484        0.0082945499       -0.0057046014
  C        -0.0219915231        0.0037176298        0.0032404147
  F         0.0161448712       -0.0044637532       -0.0073164223
  F         0.0196915180       -0.0108549388        0.0064275426
  C        -0.0334664884       -0.0477911228       -0.0031471689
  F         0.0037718735        0.0145745619        0.0071414099
  F         0.0198105076        0.0251275290        0.0022245986
  O        -0.0475499262        0.0246368589       -0.0062444817
  C         0.0556379455       -0.0171517778        0.0066689404
  F        -0.0131779441       -0.0129643291       -0.0164275965
  F         0.0006973731        0.0240579572       -0.0072325503
  C        -0.0006918345       -0.0095323891        0.0142030340
  O         0.0333478209       -0.0073205279       -0.0105376484
  C        -0.0410746421        0.0092820978        0.0032355838
  C        -0.0209953608       -0.0018709998        0.0096825664
  C        -0.0155760943        0.0091116326        0.0069754105
  O         0.0323751310       -0.0066737194       -0.0223494168
  O        -0.0033567259       -0.0016844134       -0.0076661716
  H         0.0086459881        0.0091951666       -0.0218943417
  H        -0.0085684562        0.0006182118        0.0011350932
  H         0.0003911755        0.0042309804        0.0036040365
  H         0.0137138512        0.0007546281        0.0036243396
  H        -0.0049533672       -0.0058279632        0.0052120892
  H        -0.0067541994       -0.0001130942       -0.0017201459
  H         0.0056654194        0.0014013249       -0.0048691328
  H         0.0024221950       -0.0028299475        0.0134584872
  H         0.0113991057       -0.0024076501        0.0095739250
  C         0.0043174146        0.0109133134        0.0074254026
  F         0.0032792354       -0.0038180822       -0.0006522668
  F        -0.0012770175       -0.0151188306       -0.0253325914
  F        -0.0164059950       -0.0216207103        0.0179718144
  O         0.0109241404        0.0005939298       -0.0118872670
  C         0.0001471907        0.0343683796        0.0081425400
  F         0.0234483468       -0.0109307480        0.0209863946
  F        -0.0035752937        0.0183879994       -0.0094204519
  C        -0.0353815316       -0.0160916557       -0.0065363149
  F        -0.0077857037        0.0194015516        0.0140051800
  F         0.0148661098       -0.0111536772       -0.0180520605
  C         0.0180112365       -0.0231583011        0.0213348135