      68
 i =      501, time =      501.000, E =      -806.6012740481
  C        14.7177393304        2.8740730337        0.5654272102
  F        15.1193887136        2.5666214610        1.7774272869
  F        15.1364133591        4.1604783625        0.2583498212
  F        15.2129296834        2.0147183722       -0.3174687297
  O        13.3164582357        3.0262158682        0.6491166487
  C        12.3228468168        2.0526820101        0.4988527390
  F        12.4218430937        1.4118604962       -0.6784176118
  F        12.3466467524        1.1283194444        1.5227994353
  C        10.9500352054        2.7993606200        0.4755777380
  F        10.0782956903        2.0526340110       -0.2130899600
  F        10.4529659998        2.9834915071        1.7641386839
  C        10.9667565501        4.2002129747       -0.2326890234
  F        11.5908339616        3.9649847303       -1.4919241747
  F        11.6279565822        5.0697349069        0.5154108565
  O         9.5915282982        4.4689301311       -0.3908342801
  C         8.7877092766        5.5380277036        0.1318568508
  F         8.7842559578        5.5183742672        1.4675331656
  F         9.4931952832        6.6722782378       -0.2062265109
  C         7.3429954304        5.8072068728       -0.4339349187
  O         6.5374840673        4.7286687591       -0.4468794383
  C         5.2065864311        4.8068311836        0.1028787556
  C         4.8835971598        3.4286851945        0.6741859197
  C         3.3884783948        3.0789458490        0.8159889132
  O         2.3823394073        4.1245748315        1.0817907278
  O         5.5272053733        3.2509176715        1.9390190967
  H         7.5237163583        6.2466375472       -1.4687196268
  H         7.0243721595        6.5898873254        0.2825831651
  H         5.0861707844        5.6118797182        0.8645190954
  H         4.4625790226        4.9704377627       -0.6623663619
  H         5.2300575556        2.7040700641       -0.0879370779
  H         3.0964904076        2.7822616772       -0.2006235009
  H         3.1742354943        2.1971366118        1.4560045307
  H         2.1876596757        4.1755086359        2.0119824030
  H         6.3234038423        2.6485497202        1.8746561600
  C        11.9690075878        2.7159223556        8.5983674536
  F        13.1556540686        2.1231890882        8.7291639641
  F        11.7636543081        3.4699597229        9.6766399717
  F        12.1190342090        3.5465098508        7.5235117630
  O        10.8962211448        1.7544848884        8.5473802779
  C        10.9096942015        0.5089974355        7.8317039082
  F        11.3428838572        0.6753019865        6.4817348232
  F        11.6623916877       -0.4296582887        8.4772716212
  C         9.4453613458        0.0705435763        7.6626802741
  F         9.5096225185       -1.2711008676        7.3084747478
  F         8.8263416799        0.1812526587        8.9290630874
  C         8.5218908337        0.7544907685        6.6192520856
  F         9.2013690948        1.0470031239        5.5020248062
  F         7.9371268215        1.9004102751        7.1017309089
  O         7.5074415141       -0.1568440875        6.4846151025
  C         6.4783371712       -0.1663760156        5.5593226272
  F         6.2194344387        1.1835166333        5.2912143742
  F         6.8114403758       -0.7641255055        4.3599422562
  C         5.2341762474       -0.9457405674        6.0461865491
  O         4.7849318371       -0.3322752303        7.2781040882
  C         4.3307391827        1.0465601214        7.2130538310
  C         3.1612430461        0.9802780980        8.1329836029
  C         2.2841469470        2.2174163264        8.3993784223
  O         3.0225441574        3.3552361056        9.0535316281
  O         3.7050677056        0.6332388864        9.5020735691
  H         5.5502151984       -1.9433195318        6.3353116552
  H         4.4689596454       -1.0415261164        5.2701935283
  H         5.1667192195        1.7107200932        7.4541594627
  H         3.9513052791        1.3483115574        6.1876935013
  H         2.6269313636        0.0866819862        7.8058237251
  H         1.7852420174        2.6713758122        7.5919968396
  H         1.4673278126        1.9534020818        9.0737766489
  H         2.8972676077        3.1841623855        9.9802645070
  H         4.2998783025       -0.1287244470        9.3122479108
      68
 i =      502, time =      502.000, E =      -806.5999372846
  C        14.7167502044        2.8710968199        0.5604751251
  F        15.1212901451        2.5656465018        1.7828428850
  F        15.1336898074        4.1594304636        0.2564822868
  F        15.2148109043        2.0047276588       -0.3239479254
  O        13.3218543648        3.0324100504        0.6517917324
  C        12.3248424905        2.0517305172        0.4988569151
  F        12.4239491350        1.4086041624       -0.6790250404
  F        12.3594137886        1.1265472994        1.5215613694
  C        10.9546319914        2.8008168167        0.4706179843
  F        10.0744644693        2.0546225043       -0.2205461810
  F        10.4463447390        2.9888147117        1.7517925191
  C        10.9697667120        4.2107720765       -0.2347171110
  F        11.5844108475        3.9666787095       -1.4907497925
  F        11.6152953837        5.0784192407        0.5121648337
  O         9.5970551220        4.4661248649       -0.3994569883
  C         8.7790753267        5.5480102777        0.1268109783
  F         8.7859085710        5.5286218534        1.4691381013
  F         9.4927543178        6.6750236423       -0.2082749681
  C         7.3424172786        5.8048849044       -0.4355534128
  O         6.5336810896        4.7252208032       -0.4426384327
  C         5.2117083079        4.8084833789        0.0968881914
  C         4.8907403591        3.4354486742        0.6727008023
  C         3.3947507015        3.0778813626        0.8122238351
  O         2.3738291542        4.1224860025        1.0833927420
  O         5.5352537725        3.2648896638        1.9412604366
  H         7.5039509425        6.2491074451       -1.4978741791
  H         7.0289136962        6.6133026888        0.2934975023
  H         5.0886010217        5.6028839169        0.8513196319
  H         4.4516130412        4.9717555560       -0.6610493376
  H         5.2500828413        2.7221153840       -0.0886413393
  H         3.1067952089        2.7687229038       -0.2199142687
  H         3.1820157959        2.2199039538        1.4513681192
  H         2.1614751691        4.1544391985        2.0369718636
  H         6.3301262262        2.6755776528        1.8440435739
  C        11.9644911354        2.7125773526        8.6011453062
  F        13.1544868288        2.1218259017        8.7306368615
  F        11.7549889437        3.4674011449        9.6903360499
  F        12.1116365253        3.5516513583        7.5245770752
  O        10.8945619446        1.7537335961        8.5506284354
  C        10.9110456719        0.5018606230        7.8295127900
  F        11.3382918540        0.6792365792        6.4838786907
  F        11.6623379572       -0.4356164094        8.4773114186
  C         9.4510970201        0.0698953777        7.6699048324
  F         9.5129412899       -1.2742411175        7.3044585364
  F         8.8184125307        0.1776787447        8.9315541509
  C         8.5169459716        0.7582089814        6.6190986965
  F         9.2034538000        1.0422553010        5.4994609726
  F         7.9400594053        1.8979142930        7.1124378605
  O         7.5039894241       -0.1589824839        6.4919269573
  C         6.4833148401       -0.1649999032        5.5635131436
  F         6.2157031180        1.1823082450        5.2964806542
  F         6.8096962002       -0.7626965524        4.3571932200
  C         5.2335009951       -0.9451512521        6.0445941288
  O         4.7862589459       -0.3345630183        7.2803475345
  C         4.3297692328        1.0378120307        7.2135866774
  C         3.1662569898        0.9789751443        8.1296068890
  C         2.2930643715        2.2226238526        8.4026559073
  O         3.0268899310        3.3576108546        9.0548285754
  O         3.7039764303        0.6330449422        9.5046600016
  H         5.5475201909       -1.9361814343        6.3588744432
  H         4.4655754524       -1.0553432947        5.2567806594
  H         5.1563603028        1.7137368701        7.4606071161
  H         3.9579411461        1.3383282148        6.1851197818
  H         2.6294233442        0.0792804155        7.8174921713
  H         1.7932612559        2.6676656254        7.5725585691
  H         1.4668320081        1.9469793658        9.1070239091
  H         2.9506009388        3.1769373498        9.9799433357
  H         4.3124507369       -0.1400262158        9.3135076583
      68
 i =      503, time =      503.000, E =      -806.5979450465
  C        14.7149762164        2.8695102090        0.5557060599
  F        15.1235060449        2.5644556420        1.7887463211
  F        15.1310052888        4.1579579958        0.2545223932
  F        15.2164252543        1.9947762351       -0.3305171629
  O        13.3268640239        3.0381854997        0.6540449155
  C        12.3271828607        2.0510383294        0.4992604598
  F        12.4260917052        1.4050434889       -0.6799114052
  F        12.3723080443        1.1248906353        1.5200371642
  C        10.9590323793        2.8029007484        0.4662090184
  F        10.0704064247        2.0561427113       -0.2278607317
  F        10.4398844652        2.9940564020        1.7392337255
  C        10.9716176955        4.2198020447       -0.2369109208
  F        11.5774198732        3.9689548419       -1.4889692707
  F        11.6031013675        5.0877616290        0.5088907452
  O         9.6018186560        4.4634833750       -0.4084241742
  C         8.7721130141        5.5582523785        0.1210015208
  F         8.7872161552        5.5384912876        1.4711078985
  F         9.4924172434        6.6782501621       -0.2102148292
  C         7.3431099843        5.8040902217       -0.4377883945
  O         6.5293641465        4.7206886295       -0.4384947274
  C         5.2162601469        4.8099583421        0.0912464824
  C         4.8976968314        3.4420515297        0.6718379078
  C         3.3998378542        3.0773537789        0.8072575698
  O         2.3658548475        4.1202689241        1.0851428797
  O         5.5439486993        3.2784249467        1.9436350342
  H         7.4815589678        6.2470751060       -1.5125789840
  H         7.0333030285        6.6326024783        0.2966087220
  H         5.0937266516        5.5927042174        0.8382206621
  H         4.4400515288        4.9774317226       -0.6668293474
  H         5.2720729269        2.7389820276       -0.0868820846
  H         3.1167667272        2.7552335630       -0.2352690196
  H         3.1949488122        2.2416414939        1.4489100913
  H         2.1388676924        4.1323814981        2.0593629612
  H         6.3287226991        2.7097774000        1.8136915955
  C        11.9602395923        2.7090217245        8.6036354295
  F        13.1537441696        2.1200722254        8.7321985674
  F        11.7460431495        3.4647846668        9.7040042040
  F        12.1037325974        3.5564649883        7.5257215725
  O        10.8931337414        1.7531231723        8.5534490482
  C        10.9130573815        0.4963067054        7.8265725015
  F        11.3341803559        0.6829987991        6.4870315343
  F        11.6620442167       -0.4411848595        8.4770536564
  C         9.4561019123        0.0681299774        7.6785705574
  F         9.5162622488       -1.2770270839        7.3006860199
  F         8.8108951101        0.1738716785        8.9333420739
  C         8.5113956936        0.7622577542        6.6193282848
  F         9.2055229762        1.0375478276        5.4967381448
  F         7.9431073650        1.8956133619        7.1232040633
  O         7.5003213662       -0.1622495663        6.4991174243
  C         6.4876769369       -0.1630823815        5.5669971256
  F         6.2118881222        1.1807177070        5.3014277747
  F         6.8083221973       -0.7611293624        4.3546020518
  C         5.2332641405       -0.9435016232        6.0443307877
  O         4.7877102396       -0.3372910401        7.2818686146
  C         4.3284954662        1.0294837313        7.2127480281
  C         3.1713897627        0.9780410990        8.1284825619
  C         2.3022117952        2.2281523846        8.4074964970
  O         3.0309601150        3.3594529127        9.0548700875
  O         3.7030567854        0.6324778175        9.5065791107
  H         5.5473501786       -1.9330636231        6.3815872644
  H         4.4641084730       -1.0644513215        5.2439767691
  H         5.1439727218        1.7175827875        7.4703063652
  H         3.9685381726        1.3236687336        6.1893912199
  H         2.6243616817        0.0744995824        7.8275362602
  H         1.8000008465        2.6656254871        7.5413309719
  H         1.4716273077        1.9384929104        9.1359615637
  H         3.0056996091        3.1670671208        9.9920186746
  H         4.3181453973       -0.1425692641        9.3181479110
      68
 i =      504, time =      504.000, E =      -806.5967893622
  C        14.7126298362        2.8691877612        0.5513171629
  F        15.1259896824        2.5630928235        1.7949850896
  F        15.1283291832        4.1560464432        0.2524579065
  F        15.2177049279        1.9850010899       -0.3370346730
  O        13.3313553023        3.0434716813        0.6558012050
  C        12.3299105599        2.0505852564        0.5000055367
  F        12.4283244761        1.4012233762       -0.6810371346
  F        12.3852915233        1.1233646435        1.5180892746
  C        10.9630439936        2.8055806639        0.4622790132
  F        10.0662911963        2.0572511572       -0.2350310597
  F        10.4336967620        2.9991489489        1.7266039105
  C        10.9721346148        4.2269792006       -0.2393420285
  F        11.5699823518        3.9717703986       -1.4866661660
  F        11.5914854252        5.0978748922        0.5056543329
  O         9.6056404161        4.4611513434       -0.4176773604
  C         8.7671051846        5.5685210534        0.1146166955
  F         8.7881311764        5.5480333158        1.4732767819
  F         9.4921436670        6.6819725018       -0.2120996004
  C         7.3447438064        5.8050271736       -0.4406534369
  O         6.5248250653        4.7152233978       -0.4345175345
  C         5.2198461510        4.8111499724        0.0856716392
  C         4.9042973564        3.4485867243        0.6716605997
  C         3.4037962425        3.0776893368        0.8006966912
  O         2.3583115211        4.1178803035        1.0875404476
  O         5.5530133627        3.2917230709        1.9460695945
  H         7.4575047631        6.2400226828       -1.5109922036
  H         7.0379486469        6.6445631337        0.2895931338
  H         5.1011016291        5.5846375032        0.8280851411
  H         4.4307006944        4.9866652930       -0.6775106393
  H         5.2957400879        2.7533697454       -0.0830628846
  H         3.1267702659        2.7431589913       -0.2434796931
  H         3.2119689255        2.2574888637        1.4516942262
  H         2.1221024721        4.1091435794        2.0699952547
  H         6.3251420439        2.7470048705        1.7845708389
  C        11.9562341130        2.7054197502        8.6059700672
  F        13.1533636513        2.1180048935        8.7338326417
  F        11.7367704961        3.4620856602        9.7175544237
  F        12.0953000780        3.5608849512        7.5270481882
  O        10.8919592476        1.7526104373        8.5558523172
  C        10.9157041675        0.4924107501        7.8230594045
  F        11.3305713486        0.6865692893        6.4911698902
  F        11.6615214049       -0.4463398226        8.4765031693
  C         9.4600769729        0.0652436196        7.6883764010
  F         9.5195502593       -1.2794100587        7.2971880865
  F         8.8038733928        0.1697930143        8.9344126008
  C         8.5055615306        0.7664003881        6.6200908748
  F         9.2074581170        1.0329122779        5.4939676433
  F         7.9462540112        1.8935964241        7.1339950363
  O         7.4965172257       -0.1665228145        6.5061701616
  C         6.4912157470       -0.1607695171        5.5697113747
  F         6.2080685061        1.1787926217        5.3060194733
  F         6.8073415703       -0.7594048598        4.3522121836
  C         5.2334257385       -0.9410407220        6.0453306090
  O         4.7892902154       -0.3404426919        7.2826551448
  C         4.3270686504        1.0216636156        7.2107352031
  C         3.1763892151        0.9773669977        8.1296997620
  C         2.3109964042        2.2340099325        8.4136012207
  O         3.0348048592        3.3607727309        9.0539886462
  O         3.7024370502        0.6314524707        9.5078112588
  H         5.5493644993       -1.9327130999        6.4018201156
  H         4.4665479602       -1.0684655892        5.2343093939
  H         5.1298305643        1.7215681263        7.4827303915
  H         3.9819218554        1.3051783520        6.1984477838
  H         2.6125016274        0.0738106447        7.8360103548
  H         1.8086945781        2.6622686936        7.5067869164
  H         1.4849553859        1.9299199971        9.1558150500
  H         3.0628462985        3.1548783627       10.0102394961
  H         4.3158017778       -0.1349627554        9.3264742513
      68
 i =      505, time =      505.000, E =      -806.5975270501
  C        14.7099385303        2.8699641922        0.5474831323
  F        15.1286836206        2.5616028778        1.8013970840
  F        15.1256351489        4.1536963268        0.2502802105
  F        15.2185671751        1.9755162902       -0.3433502208
  O        13.3352158317        3.0482355585        0.6570059767
  C        12.3330481918        2.0503380162        0.5010115551
  F        12.4307276661        1.3971923800       -0.6823523860
  F        12.3982561449        1.1220041532        1.5156573835
  C        10.9664904075        2.8087888983        0.4587510298
  F        10.0622600084        2.0580173138       -0.2421693516
  F        10.4277948993        3.0040941185        1.7138347562
  C        10.9712062474        4.2320838750       -0.2420474787
  F        11.5622528520        3.9750635686       -1.4839268536
  F        11.5803784504        5.1087956563        0.5024869154
  O         9.6083657997        4.4592647327       -0.4271898034
  C         8.7642664942        5.5786010550        0.1078764461
  F         8.7886336065        5.5572978405        1.4754679032
  F         9.4919037819        6.6862170438       -0.2139892786
  C         7.3469839201        5.8075847591       -0.4440430924
  O         6.5203880290        4.7090001467       -0.4307796166
  C         5.2220951588        4.8120228400        0.0799005645
  C         4.9103703658        3.4551240536        0.6721835065
  C         3.4067220230        3.0790585502        0.7924546332
  O         2.3511892581        4.1152733707        1.0907524769
  O         5.5620647721        3.3050392672        1.9485346784
  H         7.4331582554        6.2286871439       -1.4947900141
  H         7.0426283396        6.6480265951        0.2722296706
  H         5.1101336844        5.5813597728        0.8231592885
  H         4.4263777665        4.9984733952       -0.6904190413
  H         5.3205549461        2.7643497632       -0.0774096925
  H         3.1366398976        2.7332147857       -0.2434284212
  H         3.2322720329        2.2648115520        1.4612519054
  H         2.1121741196        4.0849348341        2.0652723072
  H         6.3272218111        2.7820025669        1.7568520272
  C        11.9524542154        2.7019221963        8.6082817130
  F        13.1532765052        2.1156754518        8.7355280151
  F        11.7272689684        3.4593901873        9.7307832313
  F        12.0863275412        3.5648526233        7.5286601429
  O        10.8910625347        1.7521635175        8.5578508192
  C        10.9189079376        0.4901912494        7.8191710649
  F        11.3274914436        0.6899267418        6.4962269767
  F        11.6607887760       -0.4510599675        8.4756702941
  C         9.4627878001        0.0612844783        7.6989896624
  F         9.5227651158       -1.2813462538        7.2939933413
  F         8.7973729856        0.1654163914        8.9347847018
  C         8.4997519624        0.7703777048        6.6215154643
  F         9.2091275533        1.0283799308        5.4912510989
  F         7.9495033644        1.8919358057        7.1447465402
  O         7.4926606653       -0.1716685243        6.5130515583
  C         6.4937576794       -0.1582227060        5.5716287068
  F         6.2043215394        1.1765924058        5.3102247644
  F         6.8067688076       -0.7575025332        4.3500577223
  C         5.2340313525       -0.9380735214        6.0475657706
  O         4.7910010469       -0.3439874665        7.2827305134
  C         4.3256573337        1.0143649576        7.2079581036
  C         3.1809938706        0.9768335220        8.1332613869
  C         2.3190690169        2.2401925864        8.4204899428
  O         3.0385141263        3.3615408703        9.0527921895
  O         3.7020437898        0.6301255247        9.5083960916
  H         5.5529132519       -1.9331078127        6.4177396281
  H         4.4739206450       -1.0672696499        5.2294329378
  H         5.1143553418        1.7250158459        7.4972030658
  H         3.9962308355        1.2844028400        6.2082624996
  H         2.5951083357        0.0787843293        7.8431814355
  H         1.8222108908        2.6551570532        7.4771193711
  H         1.5074724368        1.9226020715        9.1641908707
  H         3.1215478660        3.1417573172       10.0243251070
  H         4.3074127493       -0.1198031752        9.3378802230
      68
 i =      506, time =      506.000, E =      -806.5994311958
  C        14.7071299993        2.8716440745        0.5443490702
  F        15.1315690638        2.5600276623        1.8078130189
  F        15.1229332865        4.1509185245        0.2479876864
  F        15.2189380012        1.9664024475       -0.3493395516
  O        13.3383498306        3.0524600552        0.6576214519
  C        12.3365995172        2.0502577288        0.5021783190
  F        12.4333710686        1.3930039629       -0.6837998919
  F        12.4110529570        1.1208446062        1.5128239622
  C        10.9692236011        2.8124256714        0.4555430530
  F        10.0584285495        2.0585167354       -0.2494155269
  F        10.4221748131        3.0089127250        1.7008595635
  C        10.9687924695        4.2350185399       -0.2450211342
  F        11.5543942800        3.9787801330       -1.4808346412
  F        11.5697159907        5.1205010420        0.4994191474
  O         9.6098538597        4.4579459725       -0.4369839629
  C         8.7637328982        5.5882962688        0.1010094063
  F         8.7887303549        5.5663053063        1.4775093980
  F         9.4916798924        6.6910169391       -0.2159469026
  C         7.3495313362        5.8113457065       -0.4477067749
  O         6.5163855844        4.7022022376       -0.4273425774
  C         5.2227338052        4.8126812292        0.0738337446
  C         4.9157654226        3.4616890940        0.6733582128
  C         3.4087166982        3.0813809597        0.7828657541
  O         2.3445881906        4.1124169465        1.0945888845
  O         5.5707509562        3.3184774204        1.9510033488
  H         7.4101154030        6.2150774480       -1.4693679724
  H         7.0464936243        6.6439597987        0.2463587510
  H         5.1202577194        5.5838429206        0.8240706776
  H         4.4290313542        5.0119108300       -0.7032625104
  H         5.3456469312        2.7715570196       -0.0698520848
  H         3.1456785227        2.7253736672       -0.2362696038
  H         3.2555951460        2.2644685486        1.4764163342
  H         2.1085857966        4.0600281639        2.0474619929
  H         6.3407475266        2.8111833020        1.7305112601
  C        11.9488807415        2.6986646630        8.6106950873
  F        13.1534137781        2.1131686434        8.7372623495
  F        11.7177301579        3.4566689386        9.7434182441
  F        12.0768152599        3.5683209631        7.5306542046
  O        10.8904676109        1.7517603377        8.5594552882
  C        10.9225347612        0.4896118100        7.8151258126
  F        11.3249662141        0.6930477309        6.5020952678
  F        11.6598752471       -0.4553278196        8.4745679688
  C         9.4640807680        0.0563482837        7.7100596745
  F         9.5258609222       -1.2828006842        7.2911271561
  F         8.7913079360        0.1607370246        8.9345097893
  C         8.4942483149        0.7739197817        6.6237045196
  F         9.2104002450        1.0239707110        5.4886713917
  F         7.9528263288        1.8906738808        7.1553613068
  O         7.4888219853       -0.1775440529        6.5197257834
  C         6.4951755943       -0.1556104260        5.5727603548
  F         6.2007283754        1.1741816291        5.3140201963
  F         6.8066101133       -0.7554002663        4.3481466221
  C         5.2352071239       -0.9348791146        6.0510387234
  O         4.7928415026       -0.3478827718        7.2821548935
  C         4.3244107777        1.0075401745        7.2049646230
  C         3.1849716635        0.9763508460        8.1390882166
  C         2.3263993910        2.2466318001        8.4276489801
  O         3.0422260389        3.3617540719        9.0518027988
  O         3.7016162575        0.6288700866        9.5084262039
  H         5.5573326751       -1.9323482597        6.4277256879
  H         4.4860319992       -1.0610523906        5.2298184674
  H         5.0981584303        1.7273663949        7.5129141407
  H         4.0092765709        1.2633134845        6.2137421209
  H         2.5736308626        0.0905581905        7.8493878817
  H         1.8420623432        2.6432038961        7.4582125472
  H         1.5373387028        1.9171289270        9.1612419956
  H         3.1804050007        3.1290476494       10.0257703261
  H         4.2978498281       -0.1032428492        9.3509890057
      68
 i =      507, time =      507.000, E =      -806.6001748456
  C        14.7044210840        2.8740111095        0.5420276726
  F        15.1346929851        2.5584106600        1.8140541671
  F        15.1202607632        4.1477329419        0.2455807126
  F        15.2187394704        1.9577231161       -0.3548926399
  O        13.3406778617        3.0561257464        0.6576238768
  C        12.3405514609        2.0503043679        0.5033903697
  F        12.4363150248        1.3887204631       -0.6853192864
  F        12.4235940116        1.1199026525        1.5097427457
  C        10.9711290511        2.8163635432        0.4525654993
  F        10.0549049294        2.0588280941       -0.2568500526
  F        10.4169325634        3.0135437545        1.6877789632
  C        10.9649170953        4.2358174685       -0.2482127443
  F        11.5465370078        3.9828849745       -1.4774724395
  F        11.5595539699        5.1329295927        0.4964770071
  O         9.6099760166        4.4573005869       -0.4470400548
  C         8.7655506791        5.5974324188        0.0942314217
  F         8.7884478774        5.5750227116        1.4792517747
  F         9.4914667858        6.6964087233       -0.2180345531
  C         7.3521643244        5.8156063200       -0.4512387310
  O         6.5131360828        4.6950089625       -0.4242374753
  C         5.2216326700        4.8133820832        0.0675947292
  C         4.9203684482        3.4682523669        0.6750779833
  C         3.4099008139        3.0843851316        0.7726483560
  O         2.3387168231        4.1093125652        1.0985103361
  O         5.5790200985        3.3319494272        1.9533850939
  H         7.3899919143        6.2023694060       -1.4437726045
  H         7.0480819179        6.6354236487        0.2157703395
  H         5.1310075198        5.5909789421        0.8294773378
  H         4.4392744132        5.0262136795       -0.7146330047
  H         5.3697760063        2.7752200041       -0.0600805089
  H         3.1527461461        2.7188545209       -0.2252721592
  H         3.2819483391        2.2601873333        1.4936199455
  H         2.1093076753        4.0343808947        2.0245059544
  H         6.3655639790        2.8351397315        1.7065497983
  C        11.9454984936        2.6957645546        8.6133205276
  F        13.1537035119        2.1105033883        8.7390075513
  F        11.7081816783        3.4537276189        9.7553966088
  F        12.0668233657        3.5712527855        7.5330953932
  O        10.8901954904        1.7513857253        8.5606777759
  C        10.9263980556        0.4905848458        7.8111613583
  F        11.3230238079        0.6958933947        6.5086644302
  F        11.6588207988       -0.4591282906        8.4732088949
  C         9.4638898192        0.0505730901        7.7212250790
  F         9.5287903264       -1.2837522184        7.2886108209
  F         8.7856300814        0.1557655617        8.9336666605
  C         8.4892934872        0.7767588300        6.6267298732